5.484610823400 0.475435829700 5.577001185900 2.120824131500 0.321047908100 8.775760716000 2.045646514500 0.554361771900 2.131989222000 6.448562914700 0.393342370700 10.255072760200 8.477335535500 3.873911618500 8.269742654500 2.828879968500 4.028127029000 5.001620828100 7.535336431100 3.864444831800 3.630626795400 8.553333926000 6.367670721300 8.211787554600 2.521928056700 6.451932044900 5.083980021200 7.244695818000 6.286246019100 3.281770389500 5.497158517400 2.984124079500 5.738114538000 2.031386555800 2.979257427600 8.916890249100 2.128290531200 2.999278707600 2.126727703800 6.447549755000 2.987173013700 10.326099971500 7.715521099100 1.700503269400 5.491107257400 6.354386938200 1.618638184200 7.644960948500 6.289110886800 1.701344519800 6.098876454800 3.420124903600 1.810522048700 4.921569305900 0.803040630200 1.687742579300 7.061302233500 3.379487121600 1.770451311600 7.211487724400 2.032952070400 1.694969476300 8.050513747400 7.497628442100 1.681013223000 3.030063341700 0.955907570500 1.846453048500 4.090717449300 5.567749619900 1.614006859300 12.372035736000 18.676408857600 1.852848370400 1.801245855500 4.385969872900 1.692513453000 9.997883680800 1.163632283400 1.804757207100 2.519041238500 5.679336591700 1.681551087700 10.890476850700 3.882828975900 1.763878076800 1.140674849700 8.189154864700 1.657547773800 9.187996535800 6.282353761100 5.159745022900 8.367596617100 7.698416309100 5.153344867600 6.213027757200 7.712184137000 5.128882279500 7.768949932900 6.375480257900 5.690886389100 1.061351576800 1.040130821700 5.108667473200 9.056280713800 3.771357724600 5.239135064200 7.051919103700 1.249269543200 5.079130632700 6.717542819700 2.627100020100 5.192489670700 6.006223726400 2.132230675600 5.146269483900 2.932492557600 7.269214232900 5.208140276300 10.921393327600 8.486844479400 4.999777239100 1.548154293400 9.564869640100 5.318335696200 3.923295132900 8.286172157100 5.099482911100 3.058111587700 5.741104695500 5.085455470600 4.850067618200 0.050677859600 0.088477163800 5.437048948100 4.747836297000 3.306180385500 8.387319338100 4.736229959600 6.941138404100 8.440456981300 -0.126909321500 3.399593941100 5.718233687100 5.105665811800 1.530157901700 3.029587990400 0.317527045900 1.612340668400 10.901577008200 5.228885042300 0.776047399100 3.637102209100 0.443816391200 0.185268381500 11.339907411200 4.485403139200 5.314927042600 2.622707691900 -0.228613754100 4.683276125700 10.913610479200 4.638741927100 4.470299718500 2.126250518100 1.707490284000 3.796471997900 12.449636126500 4.871361791200 20.319157963500 0.739196390500 0.234987167800 19.822317609600 11.225873149000 4.896204652600 20.400943273100 1.715654089100 0.568877285800 19.313990051200 11.987505119200 5.345991917700 3.623071322900 0.727819790700 -0.700858132900 2.252271877900 11.475137362000 6.175942349700 3.114219277000 0.781430491300 2.310668127900 4.004996575100 12.850420200100 14.856189286400 0.469761207400 5.735363790900 11.543232778400 0.324617321400 8.763136495800 11.460193506400 0.570414777100 2.133267513600 15.871350454900 0.475784887700 10.331119923300 17.910208376200 3.867403295600 8.123932278900 12.175950325000 3.964595963000 5.074324047100 16.802797661700 3.953295460400 3.591693798700 17.917060385100 6.370759410700 8.357084341000 11.933326890400 6.442353408800 5.246239165100 16.959586482500 6.435713126200 3.619474528700 14.917473217600 2.982798164500 5.723039089600 11.466011528700 2.974639396600 8.849075856800 11.471656559700 3.037063657100 2.141868993800 15.634224666700 3.057858020000 10.262103665900 17.121232728100 1.691704891400 5.488027590800 15.782018103400 1.693849528800 7.688018965100 15.709984693400 1.707847567900 6.128984477700 12.921888208600 1.708420912800 4.840672356400 10.209986256200 1.687640630300 7.049047354200 12.787747849000 1.709861341300 7.143759954200 11.460835078600 1.675285641600 8.005043657800 16.588712577400 1.839385835200 2.713449010400 10.205446269900 1.777921261300 4.014321364300 14.839872770900 1.702758504000 12.367533019200 9.253793670500 1.781684488800 1.649411997400 13.686165525600 1.602226953500 9.989392441200 10.549961416600 1.798052888700 2.454924996200 14.965245502600 1.702797283000 10.884951051500 13.257585944000 1.761500429900 1.002923458500 17.549207295200 1.795978216100 9.207319713800 15.696541127900 5.148889549400 8.378173827700 17.118548738400 5.247058208800 6.229023540200 17.131539725900 5.164337585700 7.780724716200 16.075351009900 4.954117782600 0.387112585100 10.428696844500 5.005869032900 9.136924702700 13.191419546800 5.162073288500 7.126893100300 10.657837622600 4.998444456300 6.797765912200 12.040766786300 5.132071530100 6.096567190600 11.728146856400 5.163041387200 3.016082949200 16.445729096400 5.124841114900 10.860433064300 17.982875168800 5.153028451300 1.638495737800 0.156367419400 5.076614325600 4.006828542500 17.696754864000 5.150287041400 3.137565927700 15.201860306500 5.153176334200 4.903524720200 9.427863289000 0.002630643900 5.544771844200 14.099311354900 3.285123891500 8.371063632400 14.219307694000 6.969077694500 8.406622207300 9.365476509200 3.383083757400 5.637501954800 14.367558936300 1.209558075700 2.875205300200 9.952045875600 0.996460691400 10.906553651500 14.305498433100 0.239168869200 3.021558266300 10.022903253000 0.222383368400 11.516198742000 14.209796764100 3.779456506200 0.416891367800 9.357736182800 4.191043642800 11.145078978700 14.153574919600 3.863122022900 2.573647420600 9.840197700300 4.414361858900 11.957491474700 13.896490033900 19.102261991900 3.185961855000 9.493031281200 19.188024229600 12.137961061700 13.292702506800 19.539933758800 3.835618032100 9.839930766200 18.438075754200 12.662987512300 15.403716487400 2.807472517700 0.503733315600 8.808344890700 1.700030122000 11.551742126600 14.140637929300 3.477487650300 3.222992493800 9.134140126300 2.679112326000 11.482927460800 5.506544031300 7.336283496500 5.575899402100 1.875659326400 7.401643337600 8.940872943200 1.732528710000 7.261681564200 1.880026344000 6.267753214300 7.270812960100 10.329273095000 8.485097570400 10.798563771000 8.450154092300 2.591199456700 10.712918956100 4.988434712400 7.220985782900 10.807344404000 3.117381428800 8.482904068900 13.297272853200 8.194962490200 2.832512090900 13.148353292900 4.831380480400 7.538720084600 13.229367557800 3.531817241800 5.565733528600 9.832348786300 5.729070733200 2.127337791000 10.015658224000 8.688759259400 1.961057028500 9.745989722700 1.964974860600 6.371231789500 9.833529108100 10.321722219900 7.777590696800 8.547620585900 5.479683607300 6.423881963700 8.470752597100 7.654228361500 6.340627676400 8.526034459900 6.106040830300 3.386399080300 8.539516528100 5.010982460700 0.860106126500 8.632679553200 6.960852256600 3.406923123300 8.470732433100 7.255960643400 2.025812666500 8.619737852300 8.015986426000 7.643368361200 8.517739873200 3.071240069600 0.866782829700 8.543423671200 3.943771844600 5.339556169500 8.621773140700 12.380638011000 18.465029030600 8.711617067000 1.715740634800 4.240980905600 8.626977259600 9.993691832400 0.967610381200 8.548577825900 2.381958408100 5.513883164000 8.585452320400 10.909245166100 3.407593318800 8.451179618400 0.879726931300 8.181654380700 8.431672022900 9.376288695100 6.276438443400 12.008423426700 8.274617888000 7.851432191400 11.853067908200 6.223575084800 7.763731012600 11.988762005300 7.783325760800 6.384665246200 11.254493680900 0.801789017300 1.153392889900 12.090401846000 8.983775184200 3.838262432800 12.003898906300 6.888200643800 1.269273797800 12.101641120400 6.561424184100 2.663613949200 11.993628139800 5.877830699100 2.048023426600 11.912506732300 2.800074321600 7.151888874900 11.943403083200 10.727495661800 8.491336331000 12.095589445900 1.387351675600 9.582754553900 11.767506449500 3.688250037600 8.264067201000 12.000293527800 2.915165000400 5.949035119600 12.001976365400 5.035275835900 -0.040482612100 6.866649815900 5.600681082800 4.728643239500 10.155045882600 8.306650057100 4.808722969200 13.881990205800 8.239473962400 0.024675375500 10.216602842200 5.440152581600 5.995300251000 8.002020525500 1.147246282700 0.625592934400 9.440481244100 10.732072153700 5.163847495600 7.989164583900 2.360598270200 1.399034323800 8.850126212700 10.857465636600 4.636179474500 12.741835808700 0.412912633400 -1.022502197100 11.127509139500 12.612433008300 4.508564680000 10.451455439000 3.039396265600 -1.237736166100 11.070607134500 13.553024147300 4.325504344400 7.830212231000 2.953580901200 -0.084971344900 6.132412213900 11.301789241200 4.312276383200 6.820947745400 2.908852554000 0.361628847000 6.069206876400 12.167662964700 5.489359959500 9.207536573500 0.406380139700 -0.392210390100 8.876031822000 11.651535586000 4.896830164000 10.133360427800 3.598003253700 -0.680313913200 9.781165797900 12.150671936700 14.864624211100 7.326094178300 5.804593871600 11.377864957800 7.260932072100 8.943200329800 11.313024446400 7.231757023000 2.048527449700 15.859595573200 7.338215628700 10.332141675600 17.901365363500 11.055254661000 8.751767821000 12.016877197600 10.710441697400 5.162269172600 16.636985419500 10.727210510600 3.591051651600 17.912880324600 13.464685512700 8.033616670400 12.023754876200 13.237219871100 5.085688517600 16.658706801800 13.217058920200 3.607677964500 14.857530993600 9.812457076700 5.761773773600 11.471909812800 9.910420497900 8.932179445900 11.470096317100 9.682870726200 1.875910261100 15.847971736600 9.908932778500 10.320867924000 17.116566620200 8.558648062300 5.483051084000 15.865465641500 8.625694864500 7.711031058000 15.728073327900 8.573989988500 6.161589640300 12.841171441100 8.530721041300 5.121177409900 10.359890217900 8.622775848600 7.040198390800 12.869557049600 8.548906257300 7.378446781700 11.486278865100 8.576788105500 8.144157653600 16.534161019400 8.442999929500 2.754099411200 10.121058106700 8.620930149400 3.845796032100 14.915615717700 8.623433001700 12.390159438100 9.186595300900 8.554975100000 1.486341305200 13.761794943200 8.616310678600 10.019449554500 10.484309139000 8.537001092900 2.301195491800 15.054852998200 8.625113450000 10.915449078900 13.226958297600 8.135417421100 1.313034438000 17.650878376600 8.565514751200 9.335311903000 15.686322260400 12.151526708600 8.197191493000 17.350146723200 11.767708224000 6.319763252400 17.199654119700 12.102602516400 7.844005491600 14.918110190800 12.433038132100 1.685226425400 10.485885952200 12.011461559600 9.077705990500 13.183849002400 12.009408098200 7.043297294800 10.606837241000 12.011792843900 6.723938154300 11.999088682000 12.018813523300 6.038909036000 11.227748948100 12.002858214300 1.660792559700 16.629484486000 12.020973984200 10.920365995800 17.346170164200 12.011332548500 1.490831352400 -0.002786565600 11.934279584900 3.691720670200 17.423097858900 11.963921941900 3.011870804500 15.334284160800 11.951205547000 5.285453781800 9.479675900900 6.834868345100 5.842272031600 14.187556853400 10.210034899600 8.415175305500 14.096025348100 13.898247757900 8.253625231100 9.565859565800 10.231495370000 5.577110252300 15.236173903400 7.086363778700 0.984666029300 9.813623356800 9.518682758900 10.897797127700 14.067190828100 6.966420385500 3.493649160200 8.820665167800 8.282109988500 11.993866109900 13.504658455400 11.769559528900 3.446873045300 9.330198853500 12.366979794800 11.065641944300 12.886071943000 11.150295508200 3.996325597400 9.715102449100 11.876976496500 11.808051163900 13.898585236100 6.123554467200 3.037103575400 8.782866221200 6.934385136000 11.276687188300 14.862074469400 6.573154155800 1.773510134000 9.670869568400 6.644036860100 11.530155088200 14.219899029600 8.946588251800 3.113340815000 9.047854332600 9.290135089200 12.149072876100 14.452603901100 9.807668651900 3.492013057700 10.687331651900 9.097196389400 11.038254121900 5.576157920500 14.093407772700 5.820313072600 2.038872429600 14.188928423500 8.769242744300 1.726613836300 14.028827226900 2.043418759900 6.513437719900 14.191769024100 10.165495036300 8.555534549400 17.657902332200 8.279380434400 2.591742393500 17.731367527400 4.922872643400 7.305188630000 17.747010751600 3.355008024900 8.489188798900 20.147821106200 8.271858263100 2.669454915000 20.221782590000 4.999594750700 7.616998308300 20.158484054400 3.760588632400 5.418179464100 16.527487775400 5.246005764500 2.121773912300 16.845451059900 8.772974716500 2.158371260100 16.452778498600 2.116148195200 6.374968777200 16.764290497100 10.243270656500 7.710043669000 15.467768286700 5.400512256000 6.331956446300 15.727135105000 7.535537668200 6.278689056900 15.468244390500 6.003886368800 3.192380250000 15.533012448300 4.993565930100 0.947730010000 15.549527598700 6.888822478800 3.463992056000 15.481391980600 7.211244909500 2.074504116700 15.513660082900 7.985844668700 6.985788297000 15.465193078600 2.975294500100 0.939983276000 15.390324923300 4.094375389200 5.737215289900 15.386351119500 12.313132541800 18.537231611700 15.628591196200 1.893262666500 4.331010103900 15.385500780400 10.064231334900 1.056506584500 15.388316695600 2.513254580900 5.692813611800 15.424019249300 10.809189925100 3.652823899500 14.845390588400 1.082251844200 8.236567365500 15.528256820400 9.093174681100 6.279536512200 18.865723966100 8.353460629600 7.766691858100 18.857474332000 6.229940268400 7.737066145800 18.886030190100 7.793260306100 6.184299544400 18.498912187400 1.064713546400 1.059363304700 18.898087407400 9.020430723600 3.843540079100 18.865371430700 6.880387520800 1.256632138500 18.948998739700 6.638996130400 2.632332803700 18.955838660700 5.899979926000 2.247660728800 18.914711683300 2.650695024100 7.167760539600 18.910456656700 10.902067204700 8.326989471700 19.173001060500 1.505831197300 9.660824699300 18.712969050500 3.691512697900 8.277120628500 18.936883218800 3.022270752200 5.856747472400 18.902663975000 4.970042333200 -0.118900946300 13.781427544500 5.618066755200 4.649888674500 17.119201132000 8.467000679200 4.687085643600 20.732298834400 8.364175003100 -0.042615052100 17.239531672100 5.537706133600 4.716374375200 14.257270333000 3.097847332300 0.231540551400 15.324012029100 10.833081145700 4.308130371600 13.824546785000 3.876843639300 0.281429252500 13.718556280400 11.263929373500 4.555135541500 18.397806125600 2.869319146600 -0.393429776800 17.492280998600 11.149001531800 4.443433531700 17.624571476400 3.450424080700 2.014976294100 17.254874685500 12.702575170100 4.469865690300 12.173364223100 1.809619827900 0.231775367300 12.731384130200 11.070876427300 4.705838214800 13.076739081200 2.413371573300 0.063107578700 12.193106895900 11.915987399900 5.419759201900 16.292739223700 1.225092944300 -0.381216347200 16.213545734000 11.705639672600 4.876000944300 16.824566074900 1.858676949600 2.443128575100 17.704955712700 13.127124916900 14.920919522900 14.158812332200 5.737269267000 11.527508423600 14.108362811300 8.770398531600 10.987537465200 14.190536558100 2.047168236700 16.026557862100 14.264915796200 10.324006518000 17.978399137600 17.644254310600 8.112832022200 12.013591977500 17.647492183100 5.010165592200 16.816388791200 17.749157000200 3.604906707400 17.904322190900 20.075940336600 8.531287270800 12.100962345400 20.150696248100 4.997580124700 16.867094172300 20.238778342300 3.451275377000 14.852783240400 16.601561605300 5.253660935800 11.472342433000 16.759013706800 8.847533259600 11.460894127900 16.597660913100 2.122686430000 15.714934198200 16.838815290300 10.324409764800 17.120220509900 15.480281835200 5.482906297600 15.632853554900 15.718466691300 7.547023616200 15.652528734300 15.512368052800 6.009524876400 12.713325367200 15.498806133900 4.853787333500 10.208760192400 15.468201449300 7.049518000500 12.789194090000 15.495110693100 7.145940681600 11.457695943200 15.454760867700 8.007945161000 16.501104931400 15.614098947700 2.876847280300 10.295632174200 15.474360809500 4.109582918700 14.921150023500 15.399969200600 12.378559759100 8.971228689000 15.796755842800 1.958671593900 13.811864264300 15.319980554600 9.993567477700 10.355453929700 15.537311770100 2.534134301300 15.085744394700 15.448898281400 10.903395805900 12.947737253300 14.963940479500 1.122923962800 17.515366323900 15.583892348100 9.082981954400 15.702804092600 18.864387816200 8.273429077400 17.271724583400 19.106272431200 6.230847430400 17.178588519000 18.934145340000 7.776687126400 15.149098183000 18.862350213900 1.309350204700 10.530517244200 18.924793365300 8.945921457500 13.194502844800 18.861323832300 6.964759053300 10.645702801900 18.942066493300 6.633015298900 12.035567995100 18.892276918700 5.918511953000 11.597143781300 18.940942480500 2.305689874400 16.655168196700 18.970524972700 10.763847594100 17.513462110700 18.865120562700 1.416996711300 0.167462921200 18.939706619900 3.611868150200 17.595852216500 18.958157488600 2.940984557100 15.300257945600 18.924970050300 5.044456830100 9.426848636900 13.748950481500 5.518714851700 14.003207814800 17.105084244900 8.517959007400 14.098360985200 20.724026217400 8.271963018500 9.466229126900 17.165339096500 5.579976273400 14.214117785400 14.437147928600 3.022556488600 9.254955054600 15.256095136000 12.518625977400 14.590534328100 14.163050682800 3.885795235200 7.333664809600 15.701475017100 12.570273644300 13.276329413500 19.755100547300 0.404001295000 9.340237550200 18.539632202100 10.814749430200 13.003591101800 19.625885380800 -0.517122379900 11.672987466400 16.949894798300 12.020070275800 13.114140257700 12.816227311300 0.657554153600 9.575710293400 14.919198862300 11.073562915100 13.114906771400 12.644559738700 3.730434027100 9.515569196300 13.894863443900 11.163077551500 14.760696390400 16.606949099500 1.395481463800 8.221513943000 16.213069648500 12.548158124700 14.265934993700 16.752429189700 2.227452116600 11.986335837700 17.475439066100 12.460309708000 8.340249389400 9.509009813300 18.113416902600 9.463637605100 9.149698183700 18.108810905400 10.585093050400 8.790437176200 18.113194055300