-181903.016726507951
-181903.001572378125
-181902.869102887227
-181902.631043448753
-181902.307620612759
-181901.930383804574
-181901.533443830267
-181901.150083888759
-181900.805150070955
-181900.510559875547
-181900.261034511350
-181900.043326278217
-181899.844728302298
-181899.652033401275
-181899.458512498590
-181899.256772097375
-181899.037032643129
-181898.794500224205
-181898.541094434680
-181898.297720476490
-181898.018996288010
-181897.676036166464
-181897.319241939433
-181896.956189801043
-181896.598195361410
-181896.256430472771
-181895.937133345520
-181895.639261402510
-181895.338521733152
-181895.029412004660
-181894.669790705055
-181894.259563111555
-181893.823786230438
-181893.411958825105
-181893.100900761376
-181892.943126232276
-181892.940544742480
-181893.025356075465
-181893.118118058512
-181893.174918779609
-181893.184405566833
-181893.145618157549
-181893.065392215271
-181892.954103196651
-181892.822702596197
-181892.681604157027
-181892.541781088279
-181892.412239188794
-181892.294106941903
-181892.195689589280
-181892.110893168137
-181892.031232569600
-181891.944506453001
-181891.837113070826
-181891.710136007780
-181891.557747591636
-181891.381952730182
-181891.185905549617
-181890.984819391801
-181890.783617095731
-181890.580173914816
-181890.370580416376
-181890.159436576418
-181889.952154168219
-181889.749771278963
-181889.552587288345
-181889.367637809075
-181889.199708262779
-181889.049320046790
-181888.925210301910
-181888.831385006721
-181888.764444996574
-181888.715306974627
-181888.682278528693
-181888.671249155188
-181888.660564577178
-181888.632860392740
-181888.566322675702
-181888.460303740663
-181888.325253739604
-181888.181473781558
-181888.032160034374
-181887.864193888759
-181887.714919843012
-181887.599255696055
-181887.523694139149
-181887.489647688053
-181887.496896066645
-181887.550480891718
-181887.640927185741
-181887.758023685659
-181887.889796946023
-181888.030748987949
-181888.028546797665
-181887.890139238065
-181887.630223559769
-181887.310585256142
-181887.010172586015
-181886.816541205102
-181886.789251286798
-181886.924245558970
-181887.135608450597
-181887.348481601366
-181887.516298655799
-181887.626312957029
-181887.705807566119
-181887.782911763730
-181887.869043039449
-181887.975003225059
-181888.089690347202
-181888.205053889949
-181888.314005123946
-181888.407652592723
-181888.485918335558
-181888.556836704811
-181888.632227347029
-181888.714845632785
-181888.811472666683
-181888.911350563285
-181889.017760798044
-181889.135166092747
-181889.266889474646
-181889.431599641830
-181889.631733673305
-181889.877584166999
-181890.159656471631
-181890.414080293529
-181890.664338977367
-181890.889767271263
-181891.071308606071
-181891.219910884334
-181891.343911838107
-181891.450693753170
-181891.540418727818
-181891.569632627186
-181891.578310610348
-181891.591619726591
-181891.591182956647
-181891.578533417196
-181891.641447747679
-181891.714725915546
-181891.734118109976
-181891.761084974685
-181891.818936735595
-181891.888743302057
-181891.902321511676
-181891.928844041686
-181891.971185230796
-181892.040143727150
-181892.085422222124
-181892.120334702806
-181892.136125579098
-181892.159985665407
-181892.141919808404
-181892.188325671130
-181892.176986060600
-181892.170158315625
-181892.192523408419
-181892.140159041242
-181892.050721636537
-181891.830815811845
-181891.602675930510
-181891.175511534791
-181890.914905694110
-181890.606186557852
-181890.500150915061
-181890.562159705005
-181890.769516672415
-181890.942440297222
-181891.166304535058
-181891.298400413623
-181891.392852387013
-181891.433230056922
-181891.396343934408
-181891.310219379928
-181891.259945337020
-181891.185110296879
-181891.053556550760
-181890.854665916355
-181890.700985422009
-181890.488512713986
-181890.393793769705
-181890.188666720991
-181890.150782756944
-181890.142711125081
-181890.194163230539
-181890.214729650674
-181890.332610899757
-181890.447654980817
-181890.633107190457
-181890.821017350187
-181891.009967311402
-181891.117089341598
-181891.289814051182
-181891.342634698900
-181891.286823329370
-181891.209347533033
-181890.969657806010
-181890.744750555750
-181890.533609681821
-181890.394282431778
