0.198870217979 0.175991511717 -1.076673706157 -1.126415300468 0.824531768935 -0.858084153743 0.349926140735 0.104560603565 0.592501516524 0.217576537685 1.024246851482 0.552875671327 0.136175919091 0.150670771471 -0.090771776171 0.237652741269 -0.016851525733 0.462949273945 -0.236859812989 -0.585474691003 0.254480098630 0.007918998391 0.052469020770 0.048016383947 0.196988684530 0.157145323987 0.654966987211 0.323018515487 -0.199498595643 -0.075038680406 -0.019890055700 0.714030373915 -0.591774922710 -0.534879490372 1.191381426297 -0.380530498414 1.047784274428 0.891692074383 -0.035967679317 0.531684637320 0.617992978034 0.372439236097 2.046457389093 -0.858810233336 -1.349099592116 1.320200904415 0.364104747400 -0.576935028257 -2.814363177323 -1.423425048446 2.299626225002 0.862521363945 0.376865133445 0.743227823828 -2.017267652490 0.104782746897 -2.083282788495 -1.116658477386 0.649654573420 -0.919374115968 2.980793269814 -2.446840405098 2.001056331497 -0.272788925755 0.701334265455 0.158153710730 -0.126222149489 -0.888798554646 3.068772313500 -0.279646572674 0.211052619984 0.734458818661 -0.701916877479 0.012776841106 0.246034024047 0.358858153856 0.352553294162 1.114426759657 -1.178085736531 -0.862627807625 -2.666458913082 -0.288477798542 -1.273331232572 -2.308636913886 -0.601162535349 -0.065923090505 0.856501382506 -0.731537531008 0.198621335172 0.387515157840 0.080996441144 0.309986620926 -0.057871937400 -0.087353237125 -0.043839883627 -0.301488610055 -0.091055625984 0.019414401576 0.112448748716 -0.049694800230 0.263169913813 0.000469483476 0.482707174931 -0.142887013117 1.519722125768 -0.516672993161 0.202639969745 0.052219109522 -2.053952669648 0.033294246029 1.062020988030 1.190979819950 0.048595396427 -0.993116960274 -1.397030615431 0.178132212386 0.638458446669 -0.077590243394 -0.159892290832 -0.044248174843 0.054228169699 0.062786344389 -0.084072509220 -0.422444111394 -0.087173774110 -0.303991836300 0.225577811384 0.532081615680 -0.088513318968 -0.034687269837 0.004364190867 0.103333673035 1.470426360782 0.403564499320 0.173454346908 0.005738188510 -1.535653710713 -0.053469694203 0.124041853828 -0.047682654729 0.089649232438 1.628315762085 1.169949222794 -1.999314151851 0.372207322573 0.139925102031 -0.937166151315 -1.425951928842 -1.940894569433 1.830522758022 -0.059888196666 -0.404824339973 0.323518852203 -0.158626793751 3.090387065343 -0.925514939266 0.453558061761 -0.146368801306 0.005333496839 0.175957058932 1.002057715146 -0.435409671487 -0.080323326281 0.092077382464 0.143417688853 -0.011258861674 0.038547524442 -0.017109664511 0.172564745140 -0.422128894120 0.352893194028 1.202948306156 -0.184589281399 -1.664238189983 -0.127018163094 0.387314611776 -0.328635347917 -0.131859550747 0.209581434634 -0.117743679004 0.026836662795 -0.317002133592 -0.307386206974 1.597999882204 -1.227565592518 -1.222961774817 0.040385349134 0.086056372584 -0.164302761559 0.013408818315 -0.007693769736 -0.003970297830 -0.534177064930 -0.168362019566 -0.855779416679 -1.450071449592 0.410961049505 -0.792341554695 -0.325327880537 0.454620441675 0.504656170213 0.745029138851 1.477798228375 0.727261271876 -0.232716737012 -0.879007278778 1.904955172253 -0.330053054317 0.028635406716 -0.167198338179 0.969153248388 0.631362201357 -0.471245710311 -0.028109358965 1.100301117721 1.745362672075 -0.398891261827 -0.229584104662 0.026124981381 1.243047748594 -1.490566327730 0.075038680406 -0.917419048962 0.879627943133 -0.505817280496 -0.485299875573 0.506321216758 -0.076611167230 -0.175203211423 0.111845567864 0.316103790073 1.718022073018 1.237457655639 0.941982342155 -0.806950564065 -0.218897056378 -0.390944495520 0.548359785361 0.477858588189 0.651524279794 1.615286952849 -0.992684500686 0.150063476854 1.201557853451 0.370235800505 0.827856719818 -1.924733642066 -0.535406566564 -1.335001718097 -1.080655316842 0.454745397299 -0.628398233388 3.218764313681 -2.043512961509 1.352699136839 1.250956976793 0.121932006400 0.630519393671 -0.635852376289 -0.610961524527 0.964468698041 0.279198172245 0.500932184086 0.757137493080 -1.111629913407 0.075716423256 0.459279280989 0.767983435552 0.672654121541 1.194432297561 1.934628276290 -1.044016579544 -1.383658821005 -1.012725737264 -2.428863764529 -2.229003157530 -0.096553673438 0.580362823275 0.278422213247 -2.050953220452 0.397718324468 -1.600839408770 -1.462416859552 0.047492907300 1.437448874688 -0.753269010944 0.255118246488 0.765339312843 2.671758985577 -0.094374920439 -2.942785677080 0.099286242104 0.265632002404 -0.151086261776 0.114531342449 -0.089943880885 -0.088984859326 -0.266625476747 0.239274593277 -0.083808714014 -0.344055797512 0.030433122195 -0.120961157766 0.457590066072 0.172602283250 0.202679050517 0.182745800280 0.268798573319 0.082464026950 -0.644126186946 -0.162819234912 -1.856153573335 0.771235881320 -0.051590217637 0.329554774484 -0.934890724829 0.237713419309 2.272161184543 -3.170531442829 0.551916135547 -0.744793111562 0.754524737832 0.062445930302 1.040908629786 0.369297861995 0.633838173906 0.592975113765 0.124077849276 -1.380087044198 -0.616997961028 0.193490955500 -0.208951000087 -0.880945890722 0.122330527423 0.600674539929 0.278625330414 -0.380053301628 -0.912670221031 -0.192171465248 -0.077817014712 -0.524598676421 0.175012435552 0.103595411358 0.401246392518 0.116414932780 0.084438634341 0.441184369665 -0.455659167439 -0.089662087955 -0.213754335410 -0.022551661912 0.291074612950 0.132838112691 -0.056428519966 -0.001746807632 0.002159726834 -0.029614482880 -0.014534447372 0.003683362693 -0.037038286762 -0.164919312148 -0.007752905113 -0.316266798027 -0.402429100070 0.257413213359 0.132571232161 -0.038011192279 0.431467655794 0.163152449910 -0.134403400425 -0.087163489696 -0.026472594557 -0.171138811209 0.013845905889 0.054461625885 0.070207577167 0.222618985622 -0.182127192808 0.037601358401 -0.010737956130 0.019226196809 0.027639361269 0.042023141983 -0.005648714112 0.047090272512 -0.018358706530 -0.000095645046 -0.105872380506 -0.492933995711 -0.490064130125 0.648105226527 -0.712858464997 -0.270954186388 0.004771967862 0.329094032759 0.150159121900 0.035218974015 -0.151187563249 0.024980326159 0.147219836523 -0.155159917962 0.703391662374 -0.149439212955 -0.074993943207 0.003738898526 0.024540153262 -0.133151787303 0.029193336148 0.163523717237 -0.030712344021 0.743468479104 -0.156548828004 -0.091262856916 0.117336416230 -0.343368798690 -0.177867902959 -0.084737910774 -0.134442481196 0.607411344989 -0.436226768139 0.790155602607 0.159181637859 -0.038296584753 0.094525587097 -0.061901370607 0.060496005503 -0.198063405740 0.003334206855 -0.037915033012 -0.076862621140 0.138517165823 0.032140334835 0.158550689091 0.049819755854 -0.074943035361 0.200374827673 0.022004531114 -0.174047243346 -0.846092013387 0.067118139353 -0.907898767390 -0.090207676091 0.166732968468 -0.165924613567 0.198061348857 -0.260748962876 0.964343228197 0.086403985760 0.137453243247 -0.067504833300 -0.142951290701 -0.128263091348 2.628674492121 -0.015662647533 -0.113358405090 0.114769940842 -0.322407621325 0.174175798514 -0.030874323533 0.013234497506 0.041256438957 -0.111046468936 -2.168697927898 0.384626780309 -1.452730998922 0.008615253185 -0.080059531075 0.043360115737 0.018238378893 0.099145345639 -0.068719422534 0.027344712822 -0.013580568020 -0.053559168601 -0.170195216271 -0.181921504538 -0.000892172871 -0.288317361692 -0.093701805576 -0.061018453709 0.186279010536 -0.060845675562 -0.226919927346 -0.005093870004 0.103217459163 -0.029682360009 0.267179292414 -0.327690724538 1.313846679537 -0.531975172001 -0.220581643308 0.313780026844 -1.686905551547 0.329186592480 1.214385088183 1.162412804585 -0.125696615960 -1.457727166998 -1.448981815982 -0.043229503686 0.464949592369 0.008931498900 -0.136624833740 -0.059770440131 0.041914127200 -0.171695712200 -0.068285934505 -0.105041914117 -0.202613230270 -0.052067414423 0.129723478064 0.117864006642 -0.063722226017 0.157591667533 -0.010180026698 -0.214766321698 1.973694135173 -1.262353649608 -2.129302967783 0.184026723981 -0.077894147813 0.056335446024 0.284521384671 -0.097848481097 -0.080428227298 1.490377608742 1.316959257281 -2.145411444641 0.124588470406 0.074994971649 -0.026970874391 -0.633531184163 -0.015627680527 0.479846565317 0.030509741075 0.014669687410 -0.051415896828 -0.237038247563 -0.104472157609 -0.008884190598 0.329807256835 -0.146162084595 -0.005551012184 0.431948452125 -0.608765288025 -0.107182100565 -0.013254037892 0.005459995125 -0.006399476297 0.048133626261 0.093233350541 0.157911512792 0.068840264393 0.188597631559 0.041897157918 0.058486431106 -0.611061797559 -0.850870666117 -0.013296203987 0.060765457137 -0.003402083984 -0.041369567505 -0.123511692313 0.032008180121 -0.281057594205 0.105660007368 -0.061706995192 0.847029437677 0.356325617032 -0.284230849989 0.012561896864 0.007323016629 0.008242957416 -0.279156520371 0.683951549765 -0.087362493098 -1.041664534178 -0.567027024296 0.040041335502 -0.239544559132 0.090780517923 0.223805806939 0.075120955714 -0.375762644318 0.154220951010 0.486767461379 -0.027277864134 0.915365765808 -0.261627766009 -1.021653122399 1.958507655985 -0.336291065323 -0.253151352407 0.145297165420 0.724354382402 0.534755563189 -0.539190716509 -0.562696257773 0.646095137910 1.628721996418 -0.202606545401 -0.033855775006 0.206112501962 0.750080328540 -0.708287557419 -0.539923995191 -0.959467901979 0.060126795059 0.263473304011 0.118685217059 -0.088218156300 0.023076167001 -0.043056211319 0.009845269039 -0.017029446086 0.449854644462 -0.023171297826 1.050296242425 -1.646681667705 0.227603326622 0.362828451686 -0.581151637790 -0.036190851090 1.699977555320 3.381161373419 0.012189086875 -2.010386351420 0.476047502972 0.107134278042 0.005752586689 -0.130706153773 -0.175183156816 -0.018746428919 -0.294477211155 0.108014109617 0.440793047731 0.198807997277 -0.022449846219 -0.350969494484 1.130317721169 0.312528927942 0.515328820317 -0.251779925867 -0.219748605815 -0.172872763325 0.337577645451 -0.028775788960 0.583305193976 -0.112796361892 0.159887148625 0.241053282591 0.797795893392 -0.244583921744 0.880355565388 0.168525541740 0.130186276671 -0.015752636151 -1.245288208074 -0.083296550222 -0.604730712611 0.167006019646 0.131013657737 0.071485415544 -0.918927772422 -0.003447849624 -2.553987538657 -1.983903472449 -0.161108936948 1.294391654528 -0.729719760922 -0.328541245534 1.331708134675 3.027970445620 0.682130694356 -3.279834189457 -0.078471103410 0.079589533378 0.029316234889 0.087608804801 -0.030790505563 -0.222039458921 -0.345405112563 -0.163541200740 0.107466464598 -0.150559699805 -0.164658602266 0.237896481869 0.382711822517 0.045176857381 -0.178515821009 0.094826406192 0.083216846018 0.012725933259 -0.367142248926 0.049089048275 -2.143594702997 0.582266982434 -0.140254203262 -0.337947884337 -0.029125973239 -0.244536099222 2.794135792861 -2.835494047511 -0.111704671399 -0.088229469155 1.210646703877 0.082358611711 0.758804082287 0.148358835317 0.083745979092 0.016061168556 0.236193897215 0.282242358640 -0.936643188888 0.366505129510 -0.300261165304 -0.898004647387 0.171698283303 0.070069251805 -0.099285727883 0.167228162978 -0.457302616715 -0.159769906311 -0.167987152694 0.117804871264 -0.020411989685 0.043203278432 0.056837839623 0.070866808072 -0.051207123234 0.007209373860 -0.075403777085 -0.203222067549 -0.127057758086 -0.133363132000 -0.249468503934 0.292554540052 0.032935834219 0.090648363209 0.015116545176 -0.034797827282 0.019063188855 -0.051177812656 0.038471934003 -0.224884641915 -0.122478622977 -0.158036468416 0.011490775198 0.118433248929 0.096032767895 0.011603389526 0.131905316387 -0.118057353616 0.024559693647 -0.011913464593 -0.028498109795 -0.316808272398 -0.080788695991 -0.306291945378 0.274915228245 0.277245162123 0.107041718321 -0.000147581334 -0.020276749647 0.104388853860 -0.012485277983 0.003808832538 0.008236786768 -0.283083109443 -0.108675911625 0.192861549394 -0.321645032064 -0.312950588896 -0.401472135394 0.260057850289 -0.417419146960 -0.022562460547 0.006611335215 0.156981801812 0.285996169566 0.061171177249 -0.226347085514 0.632798419702 0.395962260864 -0.497591292362 0.849337774286 -0.513124870505 -0.801359956889 -0.093664781687 -0.564502200783 0.269647037432 1.128617193398 1.126226067260 -0.386935116918 0.868091916515 -0.970939651012 0.145418007278 -0.279550413408 -0.211507705282 0.041081603928 0.266615706555 -0.299718662493 0.310398511687 -0.216156260181 0.826676069149 0.491789854709 0.106090410072 0.181333236086 0.547992631799 0.246613550748 -0.229881324212 -0.104830569419 0.240891817300 -0.179730410243 0.012706392873 0.485403233929 0.414329194925 0.121292830101 -0.443201143151 0.367536656184 0.181993495433 -0.460250643843 -0.846419057736 -0.136919996407 -0.366075755247 -0.428924320337 0.068847977703 0.311723658366 0.557234205766 -0.067878157510 0.602165265665 0.134518071635 0.367884783580 -0.217451067841 -0.631222333333 -0.207780633831 2.223795644757 -0.080783553785 0.044461576423 0.244587007068 -0.596769033904 0.089797327993 0.172273182018 0.084647922155 0.076521178612 -0.177748603763 -1.314397924100 0.342645804422 -1.668035709666 -0.068829465758 -0.415326783034 0.061700824544 0.248322306050 0.124408493170 -0.152734339039 0.133400670109 -0.113518327719 -0.297069911797 -1.752821957183 1.275314581715 1.063757511249 -1.474491275216 -0.334251151906 1.112102996428 2.601859426595 0.791133650330 -2.627974123562 -0.072308168623 0.774455416965 0.013481323430 -0.481309523137 -0.564006492052 1.676827340542 0.899308711018 0.834316874155 1.290141106430 -1.017511074864 -0.353197098447 1.901210103079 -1.528614543897 1.553275024796 -3.116368579156 -0.635958305748 -0.256688676428 1.081225073350 0.943636590065 -1.288974853940 -0.379525711216 0.300654029900 -0.202201339510 -0.448886881152 0.391690115498 -0.527702512414 -0.939546993039 0.232994930397 2.109743041757 1.569639583550 0.983368878942 -0.023184667563 -1.353137252854 1.630238433188 -0.929261036882 -2.294832659872 0.076338630272 -0.212751090873 0.032711634004 0.218018253245 0.352011819792 -0.798770341571 1.843711489889 2.096594933324 -2.339323546874 0.169443939865 -0.103069877829 0.114077799814 -0.642367552238 0.625034715954 1.164758679303 0.054813352826 0.012182402006 -0.096608180830 -0.154830816730 -0.383748491397 -0.031401399725 0.006043121370 -0.095391020493 0.262413495200 -0.962898782321 -1.180529313177 0.574379351504 -0.064402025749 -0.016400039980 -0.051902863807 0.056603869216 0.023143529909 0.011828618182 0.213162467413 -0.108917595342 0.157288791555 1.114333685715 0.120947273808 -0.899306654135 -0.020594023804 -0.082047508203 -0.079584391171 -0.965404065449 -0.296616883382 -0.139787805110 -0.222700746709 -0.237356035940 -0.100622187417 1.165170055843 0.607087385963 -2.693444699873 0.024697504788 0.048861248516 -0.022753750638 -0.018967543809 -0.023299852994 -0.020355425411 -1.010235880757 -0.240376568183 0.019609805432 -0.392603885637 -0.046093198624 0.074323913668 -0.009956340705 -0.099781950834 0.109868389370 0.452028255254 -0.243935489474 0.854737091371 -0.941320540146 -1.008149173259 1.784070633368 0.119921403562 -0.303837570097 0.371058553585 1.120634431643 0.912788491786 -0.531515972938 -1.467447480413 0.461514084041 1.699902993322 1.078755785669 0.030417695574 0.517387759899 1.275314581715 -0.299320141470 0.068969848003 -1.005618179098 0.894696665786 -0.136529702915 0.078203194439 0.416590737453 0.187650437076 -0.031705818365 0.087904995909 -0.010068440812 1.126153562145 0.528314435017 0.800145367655 -1.942774560220 0.005302129377 0.296032214475 -0.685215504184 0.188780179898 1.727843687906 4.342694385628 -0.511062845600 -1.703390437939 0.312250734557 0.060988628910 -0.127977184652 -0.031427110759 -0.124345758247 0.466063394351 -0.250517514110 0.138083163574 0.667187441547 0.057352060298 -0.265786782827 -0.703834406375 1.000003917771 -0.309052281960 0.796307224539 -0.032500289307 -0.180077509199 0.293010139570 0.391573387405 0.046903096187 0.289865680143 0.225092901288 -0.157908427468 -0.003493101044 0.227835754367 0.165700927574 0.715991611568 -0.161986197419 0.214867108950 0.037919660998 -1.041385312352 -0.384066793995 -0.270271815552 0.104651106404 0.170015239035 0.046443382903 -0.228012646279 -0.253339557174 -2.559367315356 -3.303807671535 0.923685342105 1.496927751697 -1.617936731986 0.454745911520 1.062254958437 4.864080725494 0.208478431287 -2.789606537157 -0.577572147673 0.437671728235 -0.041522805266 -0.683526803488 -0.753518922192 -1.044965316689 1.590207896320 1.116554090589 1.679503344934 0.784789709865 -0.000501365158 1.117739369244 -3.037866108285 1.118881967583 -2.245855711704 0.001252641564 -0.440069025021 0.526432387348 0.116370709802 -0.676196073548 -2.252647024156 1.208153762046 0.066044960805 -0.190315128613 0.250787479965 -1.012373496102 0.772078174785 -4.019589481068 0.080373719907 -0.020156422009 1.021119875559 -0.763088054728 -0.084696773120 0.166753537295 0.063036769857 -0.190051333406 0.167336663540 -0.269153899805 -0.682988414441 0.667964943207 0.172779689382 -1.075473515102 0.078835171648 1.244290105744 -0.500455501521 -0.228864709938 -0.298654739916 -0.294359454620 -0.015338688508 0.024013591291 -0.182556052851 0.030001691048 0.085978211041 0.196201412677 -0.008031612719 -0.020613564189 -0.011410556773 -0.118249157927 -0.454407554316 0.337644494139 -0.583615269043 0.226334229997 0.059213024920 -0.021783416224 0.137768460521 0.052688078778 0.000168664381 -0.011138534036 -0.031128348547 0.113510614409 -0.254904330687 -0.083484754989 -0.258036963038 0.075454170711 0.119839128254 0.061793898486 0.018306770242 0.002113446973 -0.030170355430 -0.140768423937 -0.025967115634 -0.015706870511 0.109505349574 -0.011119507871 -0.054455455237 0.084786247517 0.381099740701 -0.016231375599 0.019848918046 0.036952926130 0.001171908918 0.002046598286 0.001491754177 0.200700843581 -0.180949627463 0.129250909264 -0.211105584714 0.062813598084 0.001768404901 0.012385004952 0.007705082591 0.099708931499