-0.001823016648 0.000063577178 0.000554168909 0.000063577178 -0.003753918554 -0.000147143809 0.000554168909 -0.000147143809 -0.002340055791
-0.001883728155 0.000084006799 0.000588496751 0.000084006799 -0.003721913276 -0.000188790452 0.000588496751 -0.000188790452 -0.002376421095
-0.001940363650 0.000107042573 0.000623738556 0.000107042573 -0.003681127466 -0.000229938176 0.000623738556 -0.000229938176 -0.002406514681
-0.001989875731 0.000131504043 0.000658970024 0.000131504043 -0.003632328691 -0.000268854429 0.000658970024 -0.000268854429 -0.002428312386
-0.002032754010 0.000157334838 0.000692846691 0.000157334838 -0.003577826103 -0.000304485054 0.000692846691 -0.000304485054 -0.002442900976
-0.002072393774 0.000184071379 0.000723516798 0.000184071379 -0.003522748355 -0.000336181316 0.000723516798 -0.000336181316 -0.002452027356
-0.002110551485 0.000210832333 0.000750825240 0.000210832333 -0.003469888625 -0.000363448243 0.000750825240 -0.000363448243 -0.002456904739
-0.002150099916 0.000237218469 0.000773005101 0.000237218469 -0.003423629996 -0.000385262765 0.000773005101 -0.000385262765 -0.002458601671
-0.002192702866 0.000263266273 0.000788935266 0.000263266273 -0.003386530163 -0.000400426903 0.000788935266 -0.000400426903 -0.002457449812
-0.002240774457 0.000289251224 0.000800728318 0.000289251224 -0.003360511599 -0.000408518158 0.000800728318 -0.000408518158 -0.002456215812
-0.002291984587 0.000315231955 0.000809112731 0.000315231955 -0.003342027829 -0.000409028180 0.000809112731 -0.000409028180 -0.002452676934
-0.002347583063 0.000343855480 0.000815379075 0.000343855480 -0.003332342057 -0.000402360018 0.000815379075 -0.000402360018 -0.002446734235
-0.002403119851 0.000374786008 0.000822440967 0.000374786008 -0.003327557877 -0.000389357537 0.000822440967 -0.000389357537 -0.002435076619
-0.002454021704 0.000407364840 0.000830423620 0.000407364840 -0.003323391987 -0.000370960789 0.000830423620 -0.000370960789 -0.002416406131
-0.002498842746 0.000441888063 0.000839609211 0.000441888063 -0.003317326906 -0.000348104270 0.000839609211 -0.000348104270 -0.002389161244
-0.002533839795 0.000478828611 0.000850358976 0.000478828611 -0.003301482027 -0.000321410150 0.000850358976 -0.000321410150 -0.002347600437
-0.002541071020 0.000517865614 0.000860854528 0.000517865614 -0.003253435571 -0.000292175778 0.000860854528 -0.000292175778 -0.002280553857
-0.002411002506 0.000560746131 0.000861456386 0.000560746131 -0.003035861421 -0.000267073201 0.000861456386 -0.000267073201 -0.002104443564
-0.001534018522 0.000614512918 0.000792627116 0.000614512918 -0.001880837603 -0.000280837088 0.000792627116 -0.000280837088 -0.001348513239
0.000266846188 0.000677485983 0.000635018694 0.000677485983 0.000450405684 -0.000345321451 0.000635018694 -0.000345321451 0.000129149615
-0.002318287127 0.000675819791 0.000911796135 0.000675819791 -0.002726270817 -0.000176336243 0.000911796135 -0.000176336243 -0.001779349349
-0.002547613259 0.000702818383 0.000962525815 0.000702818383 -0.002942791098 -0.000132408251 0.000962525815 -0.000132408251 -0.001867426321
-0.002524601848 0.000729299103 0.000991826171 0.000729299103 -0.002839584092 -0.000103591445 0.000991826171 -0.000103591445 -0.001763533424
-0.002482648568 0.000750770308 0.001021309152 0.000750770308 -0.002708809627 -0.000077849525 0.001021309152 -0.000077849525 -0.001647414431
-0.002433281340 0.000767581550 0.001049134994 0.000767581550 -0.002563120733 -0.000057879252 0.001049134994 -0.000057879252 -0.001531358964
-0.002376494262 0.000776585615 0.001072761106 0.000776585615 -0.002402773640 -0.000043541478 0.001072761106 -0.000043541478 -0.001418586455
-0.002311831363 0.000780114265 0.001094879154 0.000780114265 -0.002230709451 -0.000035158205 0.001094879154 -0.000035158205 -0.001309904917
-0.002243566014 0.000774791172 0.001111456468 0.000774791172 -0.002046429420 -0.000036686995 0.001111456468 -0.000036686995 -0.001217814697
-0.002174264226 0.000759114761 0.001125551190 0.000759114761 -0.001848862572 -0.000050226251 0.001125551190 -0.000050226251 -0.001134321240
-0.002112949007 0.000729596048 0.001138285258 0.000729596048 -0.001648412986 -0.000080215270 0.001138285258 -0.000080215270 -0.001073297349
-0.002047771445 0.000689204156 0.001149651374 0.000689204156 -0.001442511630 -0.000123147274 0.001149651374 -0.000123147274 -0.001022106127
-0.001975330255 0.000642060690 0.001154799095 0.000642060690 -0.001239423811 -0.000178072479 0.001154799095 -0.000178072479 -0.000985659753
-0.001900708039 0.000594762711 0.001155120885 0.000594762711 -0.001055897037 -0.000237472917 0.001155120885 -0.000237472917 -0.000961513346
-0.001826591902 0.000548454878 0.001151802633 0.000548454878 -0.000897151987 -0.000296311205 0.001151802633 -0.000296311205 -0.000957446700
-0.001758683025 0.000512271755 0.001139800095 0.000512271755 -0.000783008235 -0.000341186588 0.001139800095 -0.000341186588 -0.000973767972
-0.001697449239 0.000485700375 0.001113273071 0.000485700375 -0.000716688191 -0.000367141116 0.001113273071 -0.000367141116 -0.001018072485
-0.001651579324 0.000474161882 0.001072423075 0.000474161882 -0.000701255709 -0.000368026152 0.001072423075 -0.000368026152 -0.001089033429
-0.001618461585 0.000468767022 0.001020458216 0.000468767022 -0.000713577508 -0.000354397437 0.001020458216 -0.000354397437 -0.001184621248
-0.001600536143 0.000464049200 0.000962549761 0.000464049200 -0.000748226725 -0.000333188007 0.000962549761 -0.000333188007 -0.001298316826
-0.001595867857 0.000451068020 0.000905773602 0.000451068020 -0.000791520849 -0.000315666959 0.000905773602 -0.000315666959 -0.001419705834
-0.001609881142 0.000430024792 0.000852433860 0.000430024792 -0.000846976517 -0.000303629473 0.000852433860 -0.000303629473 -0.001546531654
-0.001643326147 0.000400089244 0.000805332257 0.000400089244 -0.000908574567 -0.000300920550 0.000805332257 -0.000300920550 -0.001673538103
-0.001689660655 0.000363531584 0.000767260149 0.000363531584 -0.000980543643 -0.000302797910 0.000767260149 -0.000302797910 -0.001794400738
-0.001747628369 0.000318630268 0.000734629975 0.000318630268 -0.001068541921 -0.000310115667 0.000734629975 -0.000310115667 -0.001912488804
-0.001813376713 0.000272266526 0.000709673151 0.000272266526 -0.001172881798 -0.000317362483 0.000709673151 -0.000317362483 -0.002022496638
-0.001882643985 0.000226371151 0.000690919754 0.000226371151 -0.001291184003 -0.000326309857 0.000690919754 -0.000326309857 -0.002125785215
-0.001950900748 0.000183067755 0.000674096513 0.000183067755 -0.001423678520 -0.000332872623 0.000674096513 -0.000332872623 -0.002219724787
-0.002014558823 0.000144686092 0.000656080412 0.000144686092 -0.001562310609 -0.000335310915 0.000656080412 -0.000335310915 -0.002300881427
-0.002065493175 0.000113071237 0.000639537370 0.000113071237 -0.001709325981 -0.000334669666 0.000639537370 -0.000334669666 -0.002366813868
-0.002103781929 0.000088245477 0.000619867671 0.000088245477 -0.001854943830 -0.000331534972 0.000619867671 -0.000331534972 -0.002412846092
-0.002105894273 0.000067866946 0.000602553325 0.000067866946 -0.001992134974 -0.000326639373 0.000602553325 -0.000326639373 -0.002416091802
-0.002061437838 0.000047986263 0.000587240567 0.000047986263 -0.002097622567 -0.000326225137 0.000587240567 -0.000326225137 -0.002355006520
-0.001940360348 0.000026065722 0.000580428466 0.000026065722 -0.002147531900 -0.000334889359 0.000580428466 -0.000334889359 -0.002190921774
-0.001723684036 0.000005057760 0.000576638075 0.000005057760 -0.002121007858 -0.000357789437 0.000576638075 -0.000357789437 -0.001900168568
-0.001435389739 -0.000014268567 0.000575790464 -0.000014268567 -0.002042651224 -0.000387985905 0.000575790464 -0.000387985905 -0.001520315822
-0.001181834995 -0.000030418277 0.000574395516 -0.000030418277 -0.001986787956 -0.000405768540 0.000574395516 -0.000405768540 -0.001187286537
-0.001029420829 -0.000043214782 0.000576138607 -0.000043214782 -0.002017701399 -0.000397432708 0.000576138607 -0.000397432708 -0.000992989183
-0.000968194476 -0.000055766295 0.000577705200 -0.000055766295 -0.002113810482 -0.000365622881 0.000577705200 -0.000365622881 -0.000917742763
-0.000939912592 -0.000068452989 0.000579495722 -0.000068452989 -0.002224604942 -0.000322607419 0.000579495722 -0.000322607419 -0.000887333097
-0.000917162415 -0.000081154413 0.000574900906 -0.000081154413 -0.002332042292 -0.000273660968 0.000574900906 -0.000273660968 -0.000867506763
-0.000906526523 -0.000095180434 0.000567146080 -0.000095180434 -0.002442586792 -0.000217025828 0.000567146080 -0.000217025828 -0.000871111065
-0.000959318950 -0.000108852339 0.000554904190 -0.000108852339 -0.002599904509 -0.000144594531 0.000554904190 -0.000144594531 -0.000962552264
-0.001117743082 -0.000122733609 0.000539594122 -0.000122733609 -0.002828504540 -0.000049564680 0.000539594122 -0.000049564680 -0.001193766036
-0.001350700499 -0.000133861648 0.000515265419 -0.000133861648 -0.003107242246 0.000056083320 0.000515265419 0.000056083320 -0.001526753223
-0.001562944381 -0.000146946284 0.000485786995 -0.000146946284 -0.003364520861 0.000154766940 0.000485786995 0.000154766940 -0.001850511559
-0.001701869826 -0.000164459747 0.000451017121 -0.000164459747 -0.003553369014 0.000233272420 0.000451017121 0.000233272420 -0.002091859387
-0.001753958714 -0.000187701154 0.000406550222 -0.000187701154 -0.003668275888 0.000290021670 0.000406550222 0.000290021670 -0.002227715366
-0.001751146313 -0.000214188743 0.000348684060 -0.000214188743 -0.003726423974 0.000324045368 0.000348684060 0.000324045368 -0.002292638903
-0.001718346616 -0.000243980168 0.000285193847 -0.000243980168 -0.003748389105 0.000342733700 0.000285193847 0.000342733700 -0.002315769675
-0.001671187226 -0.000274791613 0.000216605566 -0.000274791613 -0.003745985453 0.000346552006 0.000216605566 0.000346552006 -0.002320938151
-0.001617904235 -0.000306800508 0.000148829015 -0.000306800508 -0.003729471632 0.000341117966 0.000148829015 0.000341117966 -0.002318675247
-0.001561066199 -0.000344560181 0.000078839704 -0.000344560181 -0.003695391374 0.000325526843 0.000078839704 0.000325526843 -0.002314125368
-0.001505235711 -0.000384354925 0.000008894868 -0.000384354925 -0.003642618230 0.000305901122 0.000008894868 0.000305901122 -0.002302803285
-0.001439875875 -0.000423512495 -0.000059664544 -0.000423512495 -0.003573637650 0.000283359231 -0.000059664544 0.000283359231 -0.002275982446
-0.001361098519 -0.000460405443 -0.000122831876 -0.000460405443 -0.003486251245 0.000258086139 -0.000122831876 0.000258086139 -0.002233703792
-0.001259012927 -0.000497644446 -0.000179260995 -0.000497644446 -0.003356102869 0.000230390074 -0.000179260995 0.000230390074 -0.002158902361
-0.001090999965 -0.000534997404 -0.000238386872 -0.000534997404 -0.003155736689 0.000205087709 -0.000238386872 0.000205087709 -0.002001133272
-0.000792775782 -0.000570730556 -0.000309700738 -0.000570730556 -0.002816577557 0.000185792164 -0.000309700738 0.000185792164 -0.001673211959
-0.000210904945 -0.000609003364 -0.000408310776 -0.000609003364 -0.002215762724 0.000176219198 -0.000408310776 0.000176219198 -0.000991253135
0.000913110117 -0.000657107747 -0.000554859228 -0.000657107747 -0.001107785873 0.000181905020 -0.000554859228 0.000181905020 0.000374011849
0.001951194501 -0.000701789961 -0.000688429932 -0.000701789961 -0.000082837109 0.000188528558 -0.000688429932 0.000188528558 0.001629955289
0.000364341594 -0.000684792424 -0.000572044976 -0.000684792424 -0.001510216662 0.000142418839 -0.000572044976 0.000142418839 -0.000458830479
-0.000670828516 -0.000677325056 -0.000506840689 -0.000677325056 -0.002423727412 0.000118775992 -0.000506840689 0.000118775992 -0.001831855914
-0.000778998531 -0.000683982213 -0.000527993283 -0.000683982213 -0.002476630149 0.000121004076 -0.000527993283 0.000121004076 -0.002012371328
-0.000721420081 -0.000693223058 -0.000560087718 -0.000693223058 -0.002381182742 0.000135572632 -0.000560087718 0.000135572632 -0.001978447823
-0.000644584100 -0.000706064928 -0.000586738062 -0.000706064928 -0.002272168467 0.000161346469 -0.000586738062 0.000161346469 -0.001913065370
-0.000567370922 -0.000720573619 -0.000609241561 -0.000720573619 -0.002168509546 0.000198956366 -0.000609241561 0.000198956366 -0.001835205831
-0.000493913612 -0.000731260257 -0.000630604176 -0.000731260257 -0.002080275226 0.000243193678 -0.000630604176 0.000243193678 -0.001746085772
-0.000421134514 -0.000740516122 -0.000643957728 -0.000740516122 -0.001997234879 0.000293847720 -0.000643957728 0.000293847720 -0.001639711655
-0.000289367544 -0.000756729260 -0.000650498680 -0.000756729260 -0.001874147311 0.000355726747 -0.000650498680 0.000355726747 -0.001450110894
0.000198079957 -0.000797623654 -0.000667520868 -0.000797623654 -0.001486487732 0.000433281839 -0.000667520868 0.000433281839 -0.000853772963
0.002219499750 -0.000935194830 -0.000751341648 -0.000935194830 0.000124764723 0.000567341945 -0.000751341648 0.000567341945 0.001497925649
0.001492517305 -0.000891152094 -0.000685181788 -0.000891152094 -0.000488206439 0.000606393098 -0.000685181788 0.000606393098 0.000714919682
0.000303089814 -0.000789248456 -0.000587352152 -0.000789248456 -0.001448911276 0.000620033783 -0.000587352152 0.000620033783 -0.000594571277
0.001120955176 -0.000764135571 -0.000553869269 -0.000764135571 -0.000736878174 0.000659735141 -0.000553869269 0.000659735141 0.000389304478
0.001598309566 -0.000751273353 -0.000506742746 -0.000751273353 -0.000366203775 0.000722327482 -0.000506742746 0.000722327482 0.000959842326
0.001021937477 -0.000768082261 -0.000442996739 -0.000768082261 -0.000997347736 0.000838025166 -0.000442996739 0.000838025166 0.000291284014
0.000662018925 -0.000770518048 -0.000407289749 -0.000770518048 -0.001419363650 0.000939989940 -0.000407289749 0.000939989940 -0.000129975203
0.000585826537 -0.000757505467 -0.000405596566 -0.000757505467 -0.001535198087 0.001018592245 -0.000405596566 0.001018592245 -0.000201683114
0.000588831478 -0.000745848175 -0.000435936557 -0.000745848175 -0.001526736945 0.001082727688 -0.000435936557 0.001082727688 -0.000149425862
0.000584910276 -0.000743593842 -0.000491150995 -0.000743593842 -0.001479990679 0.001131799702 -0.000491150995 0.001131799702 -0.000065784976
0.000559625539 -0.000754059156 -0.000561390296 -0.000754059156 -0.001415120157 0.001164769265 -0.000561390296 0.001164769265 0.000028780012
0.000518842077 -0.000771829251 -0.000634597784 -0.000771829251 -0.001352686943 0.001177505096 -0.000634597784 0.001177505096 0.000126335127
0.000481706236 -0.000794595211 -0.000702370056 -0.000794595211 -0.001282156980 0.001175178169 -0.000702370056 0.001175178169 0.000226635409
0.000453804342 -0.000818739726 -0.000762354655 -0.000818739726 -0.001212056495 0.001158412927 -0.000762354655 0.001158412927 0.000323494880
0.000435791380 -0.000841898026 -0.000810270818 -0.000841898026 -0.001141562254 0.001128541617 -0.000810270818 0.001128541617 0.000408277009
0.000429042910 -0.000861688191 -0.000844390248 -0.000861688191 -0.001067034578 0.001088817627 -0.000844390248 0.001088817627 0.000483831183
0.000430743952 -0.000875843061 -0.000873133374 -0.000875843061 -0.000985269963 0.001041601051 -0.000873133374 0.001041601051 0.000549098240
0.000440673381 -0.000883769132 -0.000900180060 -0.000883769132 -0.000898478001 0.000988208939 -0.000900180060 0.000988208939 0.000605202531
0.000456400729 -0.000885807141 -0.000925998960 -0.000885807141 -0.000807245403 0.000926798310 -0.000925998960 0.000926798310 0.000656052736
0.000477671709 -0.000882152892 -0.000950007945 -0.000882152892 -0.000708223574 0.000857861651 -0.000950007945 0.000857861651 0.000707438952
0.000503735100 -0.000876494204 -0.000974906071 -0.000876494204 -0.000600054538 0.000784153056 -0.000974906071 0.000784153056 0.000762530565
0.000531400652 -0.000868525441 -0.000998093574 -0.000868525441 -0.000484546564 0.000707501595 -0.000998093574 0.000707501595 0.000823651280
0.000562428880 -0.000855884792 -0.001016509789 -0.000855884792 -0.000369420968 0.000627629878 -0.001016509789 0.000627629878 0.000891771439
0.000604257326 -0.000838554938 -0.001027711351 -0.000838554938 -0.000255998375 0.000549329236 -0.001027711351 0.000549329236 0.000968718033
0.000657865481 -0.000813156174 -0.001038028313 -0.000813156174 -0.000143984692 0.000472905165 -0.001038028313 0.000472905165 0.001057975408
0.000728800748 -0.000780913686 -0.001045989221 -0.000780913686 -0.000030873732 0.000402166131 -0.001045989221 0.000402166131 0.001166403919
0.000817372293 -0.000748583927 -0.001048714991 -0.000748583927 0.000077830281 0.000336010535 -0.001048714991 0.000336010535 0.001290170431
0.000917147017 -0.000711961026 -0.001042250223 -0.000711961026 0.000189138459 0.000275619877 -0.001042250223 0.000275619877 0.001430594934
0.001032747954 -0.000670276486 -0.001025947880 -0.000670276486 0.000317233222 0.000228083224 -0.001025947880 0.000228083224 0.001598665753
0.001166760496 -0.000625260046 -0.000998128905 -0.000625260046 0.000473036145 0.000199163007 -0.000998128905 0.000199163007 0.001798730331
0.001352195324 -0.000579520126 -0.000961966983 -0.000579520126 0.000691418374 0.000189600774 -0.000961966983 0.000189600774 0.002063244025
0.001708458608 -0.000542442756 -0.000927162914 -0.000542442756 0.001146199705 0.000206156052 -0.000927162914 0.000206156052 0.002487186344
0.002676429341 -0.000555172857 -0.000919399309 -0.000555172857 0.002495335131 0.000273132497 -0.000919399309 0.000273132497 0.003432627333
0.004459553406 -0.000640233137 -0.000953717225 -0.000640233137 0.005063402671 0.000394356379 -0.000953717225 0.000394356379 0.005068784040
0.003734043187 -0.000501121088 -0.000858358245 -0.000501121088 0.003898778475 0.000379043025 -0.000858358245 0.000379043025 0.004554191076
0.002383641899 -0.000302475047 -0.000738907460 -0.000302475047 0.001822455369 0.000323211907 -0.000738907460 0.000323211907 0.003487988299
0.002135125113 -0.000208384152 -0.000680218356 -0.000208384152 0.001409772064 0.000327997092 -0.000680218356 0.000327997092 0.003340000709
0.002107220630 -0.000141389728 -0.000637530975 -0.000141389728 0.001344252732 0.000342671696 -0.000637530975 0.000342671696 0.003350975773
0.002068337924 -0.000083691736 -0.000594231109 -0.000083691736 0.001293969963 0.000350879817 -0.000594231109 0.000350879817 0.003341151830
0.002001199836 -0.000028323216 -0.000552473037 -0.000028323216 0.001223373707 0.000349112452 -0.000552473037 0.000349112452 0.003297224875
0.001915544122 0.000028029635 -0.000511520878 0.000028029635 0.001142261000 0.000338009334 -0.000511520878 0.000338009334 0.003229163363
0.001834367347 0.000072031874 -0.000469121015 0.000072031874 0.001058924084 0.000325285757 -0.000469121015 0.000325285757 0.003160067102
0.001770308998 0.000105279215 -0.000425086650 0.000105279215 0.000981581405 0.000313949827 -0.000425086650 0.000313949827 0.003114499333
0.001703176663 0.000130564359 -0.000357292211 0.000130564359 0.000928933614 0.000305042862 -0.000357292211 0.000305042862 0.003106223164
0.001669955189 0.000150331845 -0.000296340689 0.000150331845 0.000901506811 0.000298808705 -0.000296340689 0.000298808705 0.003137068008
0.001680963252 0.000168728411 -0.000232056900 0.000168728411 0.000898260224 0.000295086435 -0.000232056900 0.000295086435 0.003197335122
0.001710438765 0.000178134072 -0.000161777084 0.000178134072 0.000902430436 0.000290579893 -0.000161777084 0.000290579893 0.003257476363
0.001708388833 0.000178646086 -0.000078183216 0.000178646086 0.000927563594 0.000281955674 -0.000078183216 0.000281955674 0.003320359194
0.001732797554 0.000167888492 -0.000014469343 0.000167888492 0.000952414167 0.000275660662 -0.000014469343 0.000275660662 0.003399962334
0.001801857746 0.000157436244 0.000024684089 0.000157436244 0.000972939952 0.000263670888 0.000024684089 0.000263670888 0.003496015347
0.001847264889 0.000142225087 0.000081251614 0.000142225087 0.001016009425 0.000248737687 0.000081251614 0.000248737687 0.003562485043
0.001845601591 0.000127504166 0.000148077591 0.000127504166 0.001080483245 0.000234365919 0.000148077591 0.000234365919 0.003609680781
0.001873308635 0.000105005351 0.000199229120 0.000105005351 0.001128521025 0.000227032119 0.000199229120 0.000227032119 0.003677465650
0.001944162226 0.000087495861 0.000220237240 0.000087495861 0.001188900383 0.000215408449 0.000220237240 0.000215408449 0.003750235354
0.001958758094 0.000069872297 0.000256551585 0.000069872297 0.001287134666 0.000198732876 0.000256551585 0.000198732876 0.003801002156
0.001969269355 0.000049653340 0.000293953209 0.000049653340 0.001370899624 0.000182171724 0.000293953209 0.000182171724 0.003848726330
0.002025650388 0.000031206146 0.000304396845 0.000031206146 0.001443265628 0.000179374385 0.000304396845 0.000179374385 0.003933255476
0.002077821178 0.000007006892 0.000313602333 0.000007006892 0.001550321205 0.000164127879 0.000313602333 0.000164127879 0.003987272009
0.002104854236 -0.000005097922 0.000333928321 -0.000005097922 0.001656438148 0.000155361223 0.000333928321 0.000155361223 0.004029815785
0.002173506982 -0.000020643351 0.000332690835 -0.000020643351 0.001766767236 0.000147450265 0.000332690835 0.000147450265 0.004097291474
0.002216914102 -0.000036657948 0.000349110921 -0.000036657948 0.001873698129 0.000134464689 0.000349110921 0.000134464689 0.004134138778
0.002258979409 -0.000038830854 0.000352182072 -0.000038830854 0.001993964888 0.000126343873 0.000352182072 0.000126343873 0.004173167233
0.002326916398 -0.000041098356 0.000360034276 -0.000041098356 0.002104874614 0.000113445812 0.000360034276 0.000113445812 0.004217971546
0.002378158520 -0.000039108047 0.000364810704 -0.000039108047 0.002198919954 0.000113059012 0.000364810704 0.000113059012 0.004257975288
0.002443370872 -0.000030982945 0.000361024588 -0.000030982945 0.002322774592 0.000112178456 0.000361024588 0.000112178456 0.004296768061
0.002517848855 -0.000007378279 0.000375341075 -0.000007378279 0.002449858910 0.000108805531 0.000375341075 0.000108805531 0.004305102640
0.002596274751 0.000037154350 0.000372481360 0.000037154350 0.002540792209 0.000114745516 0.000372481360 0.000114745516 0.004327807385
0.002681031995 0.000091191140 0.000362032578 0.000091191140 0.002655105682 0.000107203236 0.000362032578 0.000107203236 0.004355219383
0.002762761198 0.000161733389 0.000364012796 0.000161733389 0.002786677775 0.000099518887 0.000364012796 0.000099518887 0.004358138603
0.002846590078 0.000240373167 0.000351496825 0.000240373167 0.002908817584 0.000085359357 0.000351496825 0.000085359357 0.004371067625
0.002937596317 0.000331228276 0.000336549243 0.000331228276 0.002998841274 0.000066636096 0.000336549243 0.000066636096 0.004394994643
0.003011815155 0.000419919705 0.000316496643 0.000419919705 0.003106161797 0.000041486971 0.000316496643 0.000041486971 0.004417621293
0.003059593369 0.000502345947 0.000312191081 0.000502345947 0.003142899649 0.000003350230 0.000312191081 0.000003350230 0.004437418346
0.003084669230 0.000561493468 0.000305533880 0.000561493468 0.003177022657 -0.000020984071 0.000305533880 -0.000020984071 0.004468870822
0.003123183612 0.000598531388 0.000297487976 0.000598531388 0.003137707450 -0.000044581030 0.000297487976 -0.000044581030 0.004509516758
0.003114632605 0.000595941442 0.000308860467 0.000595941442 0.003053450699 -0.000051542627 0.000308860467 -0.000051542627 0.004548728300
0.003063102170 0.000581553639 0.000346295507 0.000581553639 0.002924165711 -0.000042008757 0.000346295507 -0.000042008757 0.004567758169
0.003020257908 0.000548565406 0.000384254503 0.000548565406 0.002789295999 -0.000024662353 0.000384254503 -0.000024662353 0.004579076094
0.002962168829 0.000513500293 0.000436026687 0.000513500293 0.002617508251 0.000006896207 0.000436026687 0.000006896207 0.004566966365
0.002910679729 0.000475415952 0.000489471475 0.000475415952 0.002420656340 0.000038685774 0.000489471475 0.000038685774 0.004555845805
0.002885273742 0.000437438412 0.000507808539 0.000437438412 0.002245781584 0.000067873949 0.000507808539 0.000067873949 0.004550721164
0.002838313698 0.000405072899 0.000530986281 0.000405072899 0.002080314819 0.000107089062 0.000530986281 0.000107089062 0.004541527753
0.002785327947 0.000373586246 0.000553525043 0.000373586246 0.001945436625 0.000140755658 0.000553525043 0.000140755658 0.004537230818
0.002738328090 0.000358034241 0.000578554487 0.000358034241 0.001886393004 0.000171747411 0.000578554487 0.000171747411 0.004550604855
0.002775119374 0.000352925978 0.000583935671 0.000352925978 0.002031411651 0.000208370832 0.000583935671 0.000208370832 0.004656928385
0.002963759423 0.000388357635 0.000575315329 0.000388357635 0.002659537962 0.000267305969 0.000575315329 0.000267305969 0.004952183895
0.003330837754 0.000447398776 0.000541313156 0.000447398776 0.003794911478 0.000336141202 0.000541313156 0.000336141202 0.005454234274
0.003460452011 0.000479279581 0.000539205285 0.000479279581 0.004303266815 0.000383241150 0.000539205285 0.000383241150 0.005678538774
0.003176107430 0.000437065621 0.000572684415 0.000437065621 0.003580040097 0.000402188887 0.000572684415 0.000402188887 0.005382053666
0.002794682810 0.000388947389 0.000594365148 0.000388947389 0.002599429206 0.000414276324 0.000594365148 0.000414276324 0.004960798129
0.002494255893 0.000355615623 0.000616279125 0.000355615623 0.001860993928 0.000423466583 0.000616279125 0.000423466583 0.004653267673
0.002257873478 0.000358737222 0.000631234937 0.000358737222 0.001433207927 0.000417256852 0.000631234937 0.000417256852 0.004424477301
0.002068973152 0.000350177818 0.000637159852 0.000350177818 0.001123826626 0.000425606758 0.000637159852 0.000425606758 0.004264673146
0.001917973337 0.000331399203 0.000617620520 0.000331399203 0.000927140783 0.000447084474 0.000617620520 0.000447084474 0.004139793663
0.001758308091 0.000338944546 0.000600974337 0.000338944546 0.000774123049 0.000440847848 0.000600974337 0.000440847848 0.004028942656
0.001601763768 0.000347441482 0.000579983571 0.000347441482 0.000668772986 0.000432101428 0.000579983571 0.000432101428 0.003929301106
0.001435785291 0.000349175789 0.000548484167 0.000349175789 0.000572446799 0.000426421703 0.000548484167 0.000426421703 0.003826772642
0.001261848700 0.000365931353 0.000516639884 0.000365931353 0.000504123160 0.000407499785 0.000516639884 0.000407499785 0.003717149577
0.001107294179 0.000383649807 0.000467856124 0.000383649807 0.000419963141 0.000389588129 0.000467856124 0.000389588129 0.003623422515
0.000968273583 0.000407669671 0.000402933353 0.000407669671 0.000345492682 0.000373719528 0.000402933353 0.000373719528 0.003539237652
0.000807566617 0.000442006661 0.000355834327 0.000442006661 0.000264721805 0.000339898647 0.000355834327 0.000339898647 0.003439655655
0.000669872346 0.000479811831 0.000293695733 0.000479811831 0.000193441257 0.000298500140 0.000293695733 0.000298500140 0.003363645456
0.000528544742 0.000523215737 0.000222188342 0.000523215737 0.000105109443 0.000263697054 0.000222188342 0.000263697054 0.003284929053
0.000418869042 0.000574165417 0.000140803456 0.000574165417 0.000032821881 0.000218213961 0.000140803456 0.000218213961 0.003219686966
0.000301250725 0.000627338745 0.000060847967 0.000627338745 -0.000035004803 0.000173666640 0.000060847967 0.000173666640 0.003149823641
0.000238815851 0.000688176049 -0.000031569485 0.000688176049 -0.000117874544 0.000121951981 -0.000031569485 0.000121951981 0.003105520898
0.000127923678 0.000757588166 -0.000103622820 0.000757588166 -0.000189407055 0.000070294437 -0.000103622820 0.000070294437 0.003041704733
0.000059966822 0.000816492368 -0.000194510079 0.000816492368 -0.000272539177 0.000023286424 -0.000194510079 0.000023286424 0.003000445599
-0.000038139615 0.000853746642 -0.000259654913 0.000853746642 -0.000351068629 -0.000015046065 -0.000259654913 -0.000015046065 0.002947170748
-0.000111065936 0.000879225416 -0.000321094537 0.000879225416 -0.000443075603 -0.000034429522 -0.000321094537 -0.000034429522 0.002905886695
