 DBCSR| CPU Multiplication driver                                           XSMM (U)
 DBCSR| Multrec recursion limit                                              512 (U)
 DBCSR| Multiplication stack size                                          30000 (D)
 DBCSR| Maximum elements for images                                    UNLIMITED (U)
 DBCSR| Multiplicative factor virtual images                                   1 (U)
 DBCSR| Use multiplication densification                                       F (D)
 DBCSR| Multiplication size stacks                                             3 (U)
 DBCSR| Use memory pool for CPU allocation                                     F (U)
 DBCSR| Number of 3D layers                                               SINGLE (U)
 DBCSR| Use MPI memory allocation                                              F (U)
 DBCSR| Use RMA algorithm                                                      F (U)
 DBCSR| Use Communication thread                                               T (U)
 DBCSR| Communication thread load                                             30 (D)
 DBCSR| MPI: My process id                                                     0
 DBCSR| MPI: Number of processes                                               1
 DBCSR| OMP: Current number of threads                                        16
 DBCSR| OMP: Max number of threads                                            16
 DBCSR| ACC: Number of devices/node                                            1
 DBCSR| ACC: Number of stack-buffers per thread                                8 (U)
 DBCSR| ACC: Avoid driver after busy                                           F (U)
 DBCSR| ACC: Process inhomogeneous stacks                                      T (U)
 DBCSR| ACC: Min. flop for processing                                          0 (U)
 DBCSR| ACC: Use G2G algorithm                                                 F (D)
 DBCSR| ACC: Min. flop for sorting                                          4000 (U)
 DBCSR| ACC: Number of binning bins                                         4096 (U)
 DBCSR| ACC: Size of binning bins                                             16 (U)
 DBCSR| ACC: GPU backend is enabled                                            T (D)
 DBCSR| Split modifier for TAS multiplication algorithm                  1.0E+00 (U)


  **** **** ******  **  PROGRAM STARTED AT               2025-10-17 10:03:35.275
 ***** ** ***  *** **   PROGRAM STARTED ON                          7832397f8ac0
 **    ****   ******    PROGRAM STARTED BY                             <unknown>
 ***** **    ** ** **   PROGRAM PROCESS ID                                   615
  **** **  *******  **  PROGRAM STARTED IN                             /mnt/cp2k

 CP2K| version string:                                       CP2K version 2025.1
 CP2K| source code revision number:                                  git:9635df4
 CP2K| cp2kflags: omp libint fftw3 libxc libgrpp pexsi elpa elpa_nvidia_gpu para
 CP2K|            llel scalapack cosma quip xsmm dbcsr_acc plumed2 spglib libdft
 CP2K|            td4 sirius libvori libbqb offload_cuda spla_gemm_offloading li
 CP2K|            ibvdwxc hdf5 trexio
 CP2K| is freely available from                            https://www.cp2k.org/
 CP2K| Program compiled at                          Tue Jan 14 21:07:27 UTC 2025
 CP2K| Program compiled on                                          eb3a76499499
 CP2K| Program compiled for                                           local_cuda
 CP2K| Data directory path                                        /opt/cp2k/data
 CP2K| Input file name                                           HAP_322_opt.inp

 GLOBAL| Force Environment number                                              1
 GLOBAL| Basis set file name                                        BASIS_MOLOPT
 GLOBAL| Potential file name                                      GTH_POTENTIALS
 GLOBAL| MM Potential file name                                     MM_POTENTIAL
 GLOBAL| Coordinate file name                                  HAP_322_clean.xyz
 GLOBAL| Method name                                                        CP2K
 GLOBAL| Project name                                                HAP_322_opt
 GLOBAL| Run type                                                        GEO_OPT
 GLOBAL| FFT library                                                       FFTW3
 GLOBAL| Diagonalization library                                            ELPA
 GLOBAL| DGEMM library                                                      SPLA
 GLOBAL| Minimum number of eigenvectors for ELPA usage                        16
 GLOBAL| Orthonormality check for eigenvectors                          DISABLED
 GLOBAL| Matrix multiplication library                                     COSMA
 GLOBAL| All-to-all communication in single precision                          F
 GLOBAL| FFTs using library dependent lengths                                  F
 GLOBAL| Grid backend                                                       AUTO
 GLOBAL| Global print level                                                  LOW
 GLOBAL| MPI I/O enabled                                                       T
 GLOBAL| Total number of message passing processes                             1
 GLOBAL| Number of threads for this process                                   16
 GLOBAL| This output is from process                                           0
 GLOBAL| OpenMP stack size per thread (OMP_STACKSIZE)                        16M
 GLOBAL| CPU model name                           Intel(R) Core(TM) Ultra 7 265K
 GLOBAL| CPUID                                                              1002
 GLOBAL| Compiled for CPUID                                                    0

 *** HINT in environment.F:928 :: The compiler target flags (generic) used ***
 *** to build this binary cannot exploit all extensions of this CPU model  ***
 *** (x86_avx2). Consider compiler target flags as part of FCFLAGS and     ***
 *** CFLAGS (ARCH file).                                                   ***


 MEMORY| system memory details [Kb]
 MEMORY|                        rank 0           min           max       average
 MEMORY| MemTotal             49330320      49330320      49330320      49330320
 MEMORY| MemFree              47807120      47807120      47807120      47807120
 MEMORY| Buffers                  8460          8460          8460          8460
 MEMORY| Cached                 662356        662356        662356        662356
 MEMORY| Slab                   110924        110924        110924        110924
 MEMORY| SReclaimable            39184         39184         39184         39184
 MEMORY| MemLikelyFree        48517120      48517120      48517120      48517120


 GENERATE|  Preliminary Number of Bonds generated:                             0
 GENERATE|  Achieved consistency in connectivity generation.

 *******************************************************************************
 *******************************************************************************
 **                                                                           **
 **     #####                         ##              ##                      **
 **    ##   ##            ##          ##              ##                      **
 **   ##     ##                       ##            ######                    **
 **   ##     ##  ##   ##  ##   #####  ##  ##   ####   ##    #####    #####    **
 **   ##     ##  ##   ##  ##  ##      ## ##   ##      ##   ##   ##  ##   ##   **
 **   ##  ## ##  ##   ##  ##  ##      ####     ###    ##   ######   ######    **
 **    ##  ###   ##   ##  ##  ##      ## ##      ##   ##   ##       ##        **
 **     #######   #####   ##   #####  ##  ##  ####    ##    #####   ##        **
 **           ##                                                    ##        **
 **                                                                           **
 **                                                ... make the atoms dance   **
 **                                                                           **
 **            Copyright (C) by CP2K developers group (2000-2025)             **
 **                      J. Chem. Phys. 152, 194103 (2020)                    **
 **                                                                           **
 *******************************************************************************


 TOTAL NUMBERS AND MAXIMUM NUMBERS

  Total number of            - Atomic kinds:                                   5
                             - Atoms:                                        387
                             - Shell sets:                                   387
                             - Shells:                                      2015
                             - Primitive Cartesian functions:               2031
                             - Cartesian basis functions:                   5338
                             - Spherical basis functions:                   4983

  Maximum angular momentum of- Orbital basis functions:                        2
                             - Local part of the GTH pseudopotential:          2
                             - Non-local part of the GTH pseudopotential:      3


 SCF PARAMETERS         Density guess:                                    ATOMIC
                        --------------------------------------------------------
                        max_scf:                                             100
                        max_scf_history:                                       0
                        max_diis:                                              4
                        --------------------------------------------------------
                        eps_scf:                                        1.00E-06
                        eps_scf_history:                                0.00E+00
                        eps_diis:                                       1.00E-01
                        eps_eigval:                                     1.00E-05
                        --------------------------------------------------------
                        level_shift [a.u.]:                             0.000000
                        --------------------------------------------------------
                        Outer loop SCF in use 
                        No variables optimised in outer loop
                        eps_scf                                         1.00E-06
                        max_scf                                               50
                        No outer loop optimization
                        step_size                                       5.00E-01

 *******************************************************************************
 ***                     STARTING GEOMETRY OPTIMIZATION                      ***
 ***                                 L-BFGS                                  ***
 *******************************************************************************

 --------------------------
 OPTIMIZATION STEP:      1
 --------------------------

 Number of electrons:                                                       2432
 Number of occupied orbitals:                                               1216
 Number of molecular orbitals:                                              1216

 Number of orbital functions:                                               4983
 Number of independent orbital functions:                                   4983

 Extrapolation method: initial_guess


 SCF WAVEFUNCTION OPTIMIZATION

  ----------------------------------- OT ---------------------------------------
  Minimizer      : DIIS                : direct inversion
                                         in the iterative subspace
                                         using   7 DIIS vectors
                                         safer DIIS on
  Preconditioner : FULL_SINGLE_INVERSE : inversion of 
                                         H + eS - 2*(Sc)(c^T*H*c+const)(Sc)^T
  Precond_solver : DEFAULT
  stepsize       :    0.08000000                  energy_gap     :    0.08000000
  eps_taylor     :   0.10000E-15                  max_taylor     :             4
  ----------------------------------- OT ---------------------------------------

  Step     Update method      Time    Convergence         Total energy    Change
  ------------------------------------------------------------------------------
     1 OT DIIS     0.80E-01   23.1     0.01505907     -6698.3468351744 -6.70E+03
     2 OT DIIS     0.80E-01   13.0     0.01036374     -6764.3930777380 -6.60E+01
     3 OT DIIS     0.80E-01   13.4     0.00773789     -6792.7569813423 -2.84E+01
     4 OT DIIS     0.80E-01   13.8     0.00565992     -6818.2825896271 -2.55E+01
     5 OT DIIS     0.80E-01   13.5     0.00396758     -6840.9924522519 -2.27E+01
     6 OT DIIS     0.80E-01   13.4     0.00312945     -6854.2914375984 -1.33E+01
     7 OT DIIS     0.80E-01   13.3     0.00247919     -6864.4389762437 -1.01E+01
     8 OT DIIS     0.80E-01   13.5     0.00200031     -6871.4422736593 -7.00E+00
     9 OT DIIS     0.80E-01   13.7     0.00159162     -6877.4790509302 -6.04E+00
    10 OT DIIS     0.80E-01   13.7     0.00124824     -6881.8149711842 -4.34E+00
    11 OT DIIS     0.80E-01   13.6     0.00103365     -6884.2359460974 -2.42E+00
    12 OT DIIS     0.80E-01   13.7     0.00084508     -6886.1017870704 -1.87E+00
    13 OT DIIS     0.80E-01   13.4     0.00071117     -6887.3076516203 -1.21E+00
    14 OT DIIS     0.80E-01   13.6     0.00060913     -6888.1730329669 -8.65E-01
    15 OT DIIS     0.80E-01   13.7     0.00051268     -6888.9515836738 -7.79E-01
    16 OT DIIS     0.80E-01   13.6     0.00043609     -6889.4740732777 -5.22E-01
    17 OT DIIS     0.80E-01   13.5     0.00038233     -6889.8243054647 -3.50E-01
    18 OT DIIS     0.80E-01   13.4     0.00033021     -6890.1707914867 -3.46E-01
    19 OT DIIS     0.80E-01   13.6     0.00029375     -6890.4085622981 -2.38E-01
    20 OT DIIS     0.80E-01   13.6     0.00026084     -6890.6086399878 -2.00E-01
    21 OT DIIS     0.80E-01   13.6     0.00023084     -6890.7814448899 -1.73E-01
    22 OT DIIS     0.80E-01   13.5     0.00020607     -6890.9302919593 -1.49E-01
    23 OT DIIS     0.80E-01   13.6     0.00018576     -6891.0418956471 -1.12E-01
    24 OT DIIS     0.80E-01   13.5     0.00017045     -6891.1196860642 -7.78E-02
    25 OT DIIS     0.80E-01   13.5     0.00015011     -6891.2240923349 -1.04E-01
    26 OT DIIS     0.80E-01   13.6     0.00013476     -6891.3005790776 -7.65E-02
    27 OT DIIS     0.80E-01   13.6     0.00012407     -6891.3510868100 -5.05E-02
    28 OT DIIS     0.80E-01   13.7     0.00011300     -6891.4056534990 -5.46E-02
    29 OT DIIS     0.80E-01   13.7     0.00010495     -6891.4453594881 -3.97E-02
    30 OT DIIS     0.80E-01   13.6     0.00009887     -6891.4754901621 -3.01E-02
    31 OT DIIS     0.80E-01   13.6     0.00009113     -6891.5142089372 -3.87E-02
    32 OT DIIS     0.80E-01   13.3     0.00008370     -6891.5485625295 -3.44E-02
    33 OT DIIS     0.80E-01   13.7     0.00007851     -6891.5755332125 -2.70E-02
    34 OT DIIS     0.80E-01   13.7     0.00007386     -6891.5970806133 -2.15E-02
    35 OT DIIS     0.80E-01   13.5     0.00006913     -6891.6202612141 -2.32E-02
    36 OT DIIS     0.80E-01   13.5     0.00006532     -6891.6402694670 -2.00E-02
    37 OT DIIS     0.80E-01   13.4     0.00006215     -6891.6558953222 -1.56E-02
    38 OT DIIS     0.80E-01   13.5     0.00005873     -6891.6728771725 -1.70E-02
    39 OT DIIS     0.80E-01   13.6     0.00005508     -6891.6929390868 -2.01E-02
    40 OT DIIS     0.80E-01   13.7     0.00005255     -6891.7056410108 -1.27E-02
    41 OT DIIS     0.80E-01   13.5     0.00005049     -6891.7148766818 -9.24E-03
    42 OT DIIS     0.80E-01   13.6     0.00004742     -6891.7306148690 -1.57E-02
    43 OT DIIS     0.80E-01   13.6     0.00004512     -6891.7423117092 -1.17E-02
    44 OT DIIS     0.80E-01   13.6     0.00004333     -6891.7507115049 -8.40E-03
    45 OT DIIS     0.80E-01   13.6     0.00004078     -6891.7626114886 -1.19E-02
    46 OT DIIS     0.80E-01   13.6     0.00003899     -6891.7729607739 -1.03E-02
    47 OT DIIS     0.80E-01   13.4     0.00003789     -6891.7790518065 -6.09E-03
    48 OT DIIS     0.80E-01   13.5     0.00003608     -6891.7853393373 -6.29E-03
    49 OT DIIS     0.80E-01   13.6     0.00003424     -6891.7947578084 -9.42E-03
    50 OT DIIS     0.80E-01   13.5     0.00003258     -6891.8020480780 -7.29E-03
    51 OT DIIS     0.80E-01   13.6     0.00003121     -6891.8087155387 -6.67E-03
    52 OT DIIS     0.80E-01   13.5     0.00002995     -6891.8146286764 -5.91E-03
    53 OT DIIS     0.80E-01   13.5     0.00002871     -6891.8208651286 -6.24E-03
    54 OT DIIS     0.80E-01   13.5     0.00002799     -6891.8253190556 -4.45E-03
    55 OT DIIS     0.80E-01   13.4     0.00002703     -6891.8285231177 -3.20E-03
    56 OT DIIS     0.80E-01   13.4     0.00002576     -6891.8351620215 -6.64E-03
    57 OT DIIS     0.80E-01   13.5     0.00002492     -6891.8393169944 -4.15E-03
    58 OT DIIS     0.80E-01   13.6     0.00002418     -6891.8431787389 -3.86E-03
    59 OT DIIS     0.80E-01   13.6     0.00002355     -6891.8464881364 -3.31E-03
    60 OT DIIS     0.80E-01   13.5     0.00002293     -6891.8501028311 -3.61E-03
    61 OT DIIS     0.80E-01   13.6     0.00002248     -6891.8531018087 -3.00E-03
    62 OT DIIS     0.80E-01   13.5     0.00002183     -6891.8553833977 -2.28E-03
    63 OT DIIS     0.80E-01   13.5     0.00002118     -6891.8590918269 -3.71E-03
    64 OT DIIS     0.80E-01   13.7     0.00002051     -6891.8627495532 -3.66E-03
    65 OT DIIS     0.80E-01   13.6     0.00002007     -6891.8653133593 -2.56E-03
    66 OT DIIS     0.80E-01   13.6     0.00001960     -6891.8677117088 -2.40E-03
    67 OT DIIS     0.80E-01   13.6     0.00001918     -6891.8698426295 -2.13E-03
    68 OT DIIS     0.80E-01   13.5     0.00001884     -6891.8719880269 -2.15E-03
    69 OT DIIS     0.80E-01   13.6     0.00001872     -6891.8734128359 -1.42E-03
    70 OT DIIS     0.80E-01   13.4     0.00001805     -6891.8759039215 -2.49E-03
    71 OT DIIS     0.80E-01   13.5     0.00001773     -6891.8779323575 -2.03E-03
    72 OT DIIS     0.80E-01   13.6     0.00001751     -6891.8794288506 -1.50E-03
    73 OT DIIS     0.80E-01   13.5     0.00001731     -6891.8809652089 -1.54E-03
    74 OT DIIS     0.80E-01   13.5     0.00001707     -6891.8827033774 -1.74E-03
    75 OT DIIS     0.80E-01   13.3     0.00001686     -6891.8842670927 -1.56E-03
    76 OT DIIS     0.80E-01   13.5     0.00001658     -6891.8863882008 -2.12E-03
    77 OT DIIS     0.80E-01   13.5     0.00001633     -6891.8891860027 -2.80E-03
    78 OT DIIS     0.80E-01   13.6     0.00001591     -6891.8895949756 -4.09E-04
    79 OT DIIS     0.80E-01   13.5     0.00001547     -6891.8921657197 -2.57E-03
    80 OT DIIS     0.80E-01   13.5     0.00001526     -6891.8933429969 -1.18E-03
    81 OT DIIS     0.80E-01   13.5     0.00001504     -6891.8944603005 -1.12E-03
    82 OT DIIS     0.80E-01   13.7     0.00001483     -6891.8956467144 -1.19E-03
    83 OT DIIS     0.80E-01   13.5     0.00001461     -6891.8970726904 -1.43E-03
    84 OT DIIS     0.80E-01   13.6     0.00001431     -6891.8987303408 -1.66E-03
    85 OT DIIS     0.80E-01   13.5     0.00001385     -6891.9007265106 -2.00E-03
    86 OT DIIS     0.80E-01   13.5     0.00001355     -6891.9026590432 -1.93E-03
    87 OT DIIS     0.80E-01   13.4     0.00001329     -6891.9040654792 -1.41E-03
    88 OT DIIS     0.80E-01   13.7     0.00001295     -6891.9055922575 -1.53E-03
    89 OT DIIS     0.80E-01   13.6     0.00001274     -6891.9069322273 -1.34E-03
    90 OT DIIS     0.80E-01   13.4     0.00001260     -6891.9079999111 -1.07E-03
    91 OT DIIS     0.80E-01   13.5     0.00001240     -6891.9088163798 -8.16E-04
    92 OT DIIS     0.80E-01   13.5     0.00001218     -6891.9104774370 -1.66E-03
    93 OT DIIS     0.80E-01   13.5     0.00001180     -6891.9118670864 -1.39E-03
    94 OT DIIS     0.80E-01   13.6     0.00001162     -6891.9132350303 -1.37E-03
    95 OT DIIS     0.80E-01   13.4     0.00001148     -6891.9138628368 -6.28E-04
    96 OT DIIS     0.80E-01   13.6     0.00001128     -6891.9150467535 -1.18E-03
    97 OT DIIS     0.80E-01   13.5     0.00001114     -6891.9160478907 -1.00E-03
    98 OT DIIS     0.80E-01   13.6     0.00001098     -6891.9169000974 -8.52E-04
    99 OT DIIS     0.80E-01   13.4     0.00001075     -6891.9183496994 -1.45E-03
   100 OT DIIS     0.80E-01   13.4     0.00001056     -6891.9195937815 -1.24E-03

  Leaving inner SCF loop after reaching   100 steps.


  Electronic density on regular grids:      -2431.9999999953        0.0000000047
  Core density on regular grids:             2431.9999999988       -0.0000000012
  Total charge density on r-space grids:        0.0000000035
  Total charge density g-space grids:           0.0000000035

  Overlap energy of the core charge distribution:               0.02784051173653
  Self energy of the core charge distribution:             -16017.19408509233290
  Core Hamiltonian energy:                                   4325.12940529603839
  Hartree energy:                                            6128.97505702620492
  Exchange-correlation energy:                              -1327.07033683645773
  Dispersion energy:                                           -1.78747468667528

  Total energy:                                             -6891.91959378148567

  outer SCF iter =    1 RMS gradient =   0.11E-04 energy =      -6891.9195937815

  ----------------------------------- OT ---------------------------------------
  Minimizer      : DIIS                : direct inversion
                                         in the iterative subspace
                                         using   7 DIIS vectors
                                         safer DIIS on
  Preconditioner : FULL_SINGLE_INVERSE : inversion of 
                                         H + eS - 2*(Sc)(c^T*H*c+const)(Sc)^T
  Precond_solver : DEFAULT
  stepsize       :    0.08000000                  energy_gap     :    0.08000000
  eps_taylor     :   0.10000E-15                  max_taylor     :             4
  ----------------------------------- OT ---------------------------------------

  Step     Update method      Time    Convergence         Total energy    Change
  ------------------------------------------------------------------------------
     1 OT DIIS     0.80E-01   35.5     0.00012197     -6891.9209533691 -1.36E-03
     2 OT DIIS     0.80E-01   12.9     0.00013976     -6891.9254652805 -4.51E-03
     3 OT DIIS     0.80E-01   13.0     0.00014858     -6891.9268737378 -1.41E-03
     4 OT DIIS     0.80E-01   13.0     0.00012072     -6891.9289198146 -2.05E-03
     5 OT DIIS     0.80E-01   13.0     0.00009839     -6891.9316131003 -2.69E-03
     6 OT DIIS     0.80E-01   12.8     0.00008388     -6891.9331738968 -1.56E-03
     7 OT DIIS     0.80E-01   13.1     0.00007422     -6891.9352313330 -2.06E-03
     8 OT DIIS     0.80E-01   13.1     0.00006857     -6891.9370137679 -1.78E-03
     9 OT DIIS     0.80E-01   13.0     0.00005906     -6891.9385102489 -1.50E-03
    10 OT DIIS     0.80E-01   13.7     0.00006194     -6891.9402077739 -1.70E-03
    11 OT DIIS     0.80E-01   13.6     0.00005452     -6891.9421834574 -1.98E-03
    12 OT DIIS     0.80E-01   13.5     0.00005487     -6891.9440182393 -1.83E-03
    13 OT DIIS     0.80E-01   13.4     0.00005606     -6891.9458305295 -1.81E-03
    14 OT DIIS     0.80E-01   13.4     0.00005341     -6891.9475875112 -1.76E-03
    15 OT DIIS     0.80E-01   13.5     0.00005288     -6891.9488551246 -1.27E-03
    16 OT DIIS     0.80E-01   13.4     0.00005169     -6891.9500644827 -1.21E-03
    17 OT DIIS     0.80E-01   13.5     0.00004954     -6891.9512868350 -1.22E-03
    18 OT DIIS     0.80E-01   13.5     0.00004336     -6891.9527607546 -1.47E-03
    19 OT DIIS     0.80E-01   13.5     0.00004809     -6891.9531771426 -4.16E-04
    20 OT DIIS     0.80E-01   13.5     0.00004545     -6891.9541661801 -9.89E-04
    21 OT DIIS     0.80E-01   13.6     0.00004475     -6891.9549318559 -7.66E-04
    22 OT DIIS     0.80E-01   13.7     0.00004721     -6891.9549077065  2.41E-05
    23 OT DIIS     0.80E-01   13.6     0.00004419     -6891.9553884841 -4.81E-04
    24 OT DIIS     0.80E-01   13.4     0.00004102     -6891.9557963141 -4.08E-04
    25 OT SD       0.80E-01   13.7     0.00003919     -6891.9560657438 -2.69E-04
    26 OT DIIS     0.80E-01   13.6     0.00014834     -6891.9556115435  4.54E-04
    27 OT DIIS     0.80E-01   13.7     0.00003402     -6891.9566281558 -1.02E-03
    28 OT DIIS     0.80E-01   13.4     0.00003228     -6891.9568964515 -2.68E-04
    29 OT DIIS     0.80E-01   13.6     0.00003211     -6891.9570689349 -1.72E-04
    30 OT DIIS     0.80E-01   13.6     0.00003198     -6891.9572193313 -1.50E-04
    31 OT DIIS     0.80E-01   13.6     0.00003339     -6891.9574603194 -2.41E-04
    32 OT SD       0.80E-01   13.5     0.00003145     -6891.9601083436 -2.65E-03
    33 OT DIIS     0.80E-01   13.5     0.00009938     -6891.9599188444  1.89E-04
    34 OT DIIS     0.80E-01   13.6     0.00002955     -6891.9603748463 -4.56E-04
    35 OT DIIS     0.80E-01   13.6     0.00002356     -6891.9613599048 -9.85E-04
    36 OT DIIS     0.80E-01   13.6     0.00002208     -6891.9618064119 -4.47E-04
    37 OT DIIS     0.80E-01   13.6     0.00002224     -6891.9622070503 -4.01E-04
    38 OT DIIS     0.80E-01   13.6     0.00002191     -6891.9631329910 -9.26E-04
    39 OT SD       0.80E-01   13.6     0.00002097     -6891.9631413343 -8.34E-06
    40 OT DIIS     0.80E-01   13.7     0.00006560     -6891.9630953062  4.60E-05
    41 OT DIIS     0.80E-01   13.4     0.00001896     -6891.9639045841 -8.09E-04
    42 OT DIIS     0.80E-01   13.7     0.00001606     -6891.9641547860 -2.50E-04
    43 OT DIIS     0.80E-01   13.4     0.00001588     -6891.9642953974 -1.41E-04
    44 OT DIIS     0.80E-01   13.7     0.00001914     -6891.9643046953 -9.30E-06
    45 OT DIIS     0.80E-01   13.6     0.00001413     -6891.9646424548 -3.38E-04
    46 OT DIIS     0.80E-01   13.6     0.00001771     -6891.9648224333 -1.80E-04
    47 OT DIIS     0.80E-01   13.6     0.00001500     -6891.9651045794 -2.82E-04
    48 OT DIIS     0.80E-01   13.6     0.00001420     -6891.9652622110 -1.58E-04
    49 OT DIIS     0.80E-01   13.7     0.00001698     -6891.9653686928 -1.06E-04
    50 OT DIIS     0.80E-01   13.6     0.00001889     -6891.9653492890  1.94E-05
    51 OT DIIS     0.80E-01   13.6     0.00001287     -6891.9656536977 -3.04E-04
    52 OT DIIS     0.80E-01   13.5     0.00001284     -6891.9658673869 -2.14E-04
    53 OT DIIS     0.80E-01   13.6     0.00001437     -6891.9658611817  6.21E-06
    54 OT DIIS     0.80E-01   13.5     0.00001185     -6891.9661691812 -3.08E-04
    55 OT DIIS     0.80E-01   13.4     0.00001396     -6891.9661699262 -7.45E-07
    56 OT DIIS     0.80E-01   13.5     0.00001564     -6891.9662586370 -8.87E-05
    57 OT DIIS     0.80E-01   13.4     0.00001238     -6891.9665250119 -2.66E-04
    58 OT SD       0.80E-01   13.6     0.00001205     -6891.9668101577 -2.85E-04
    59 OT SD       0.80E-01   13.5     0.00002613     -6891.9668344491 -2.43E-05
    60 OT DIIS     0.80E-01   13.7     0.00012662     -6891.9662993827  5.35E-04
    61 OT SD       0.80E-01   13.7     0.00001121     -6891.9670698044 -7.70E-04
    62 OT DIIS     0.80E-01   13.7     0.00002693     -6891.9670841714 -1.44E-05
    63 OT DIIS     0.80E-01   13.7     0.00001185     -6891.9673299056 -2.46E-04
    64 OT DIIS     0.80E-01   13.6     0.00001117     -6891.9675926121 -2.63E-04
    65 OT SD       0.80E-01   13.5     0.00001092     -6891.9677198917 -1.27E-04
    66 OT SD       0.80E-01   13.7     0.00002379     -6891.9677344266 -1.45E-05
    67 OT DIIS     0.80E-01   13.7     0.00011103     -6891.9673079867  4.26E-04
    68 OT DIIS     0.80E-01   13.7     0.00000882     -6891.9678621710 -5.54E-04
    69 OT DIIS     0.80E-01   13.7     0.00000871     -6891.9679240576 -6.19E-05
    70 OT DIIS     0.80E-01   13.7     0.00000843     -6891.9680192697 -9.52E-05
    71 OT DIIS     0.80E-01   13.5     0.00000882     -6891.9681667034 -1.47E-04
    72 OT SD       0.80E-01   13.5     0.00001104     -6891.9682940787 -1.27E-04
    73 OT DIIS     0.80E-01   13.5     0.00004339     -6891.9682522015  4.19E-05
    74 OT DIIS     0.80E-01   13.6     0.00000810     -6891.9684236395 -1.71E-04
    75 OT DIIS     0.80E-01   13.6     0.00000805     -6891.9685360970 -1.12E-04
    76 OT DIIS     0.80E-01   13.5     0.00000815     -6891.9685896187 -5.35E-05
    77 OT DIIS     0.80E-01   13.6     0.00000813     -6891.9686252491 -3.56E-05
    78 OT DIIS     0.80E-01   13.5     0.00000791     -6891.9687283639 -1.03E-04
    79 OT SD       0.80E-01   13.5     0.00000908     -6891.9687402371 -1.19E-05
    80 OT DIIS     0.80E-01   13.7     0.00003376     -6891.9687183691  2.19E-05
    81 OT DIIS     0.80E-01   13.4     0.00000742     -6891.9687592834 -4.09E-05
    82 OT DIIS     0.80E-01   13.7     0.00000655     -6891.9688229331 -6.36E-05
    83 OT DIIS     0.80E-01   13.6     0.00000773     -6891.9688387680 -1.58E-05
    84 OT DIIS     0.80E-01   13.6     0.00000790     -6891.9688497568 -1.10E-05
    85 OT DIIS     0.80E-01   13.5     0.00000775     -6891.9689140006 -6.42E-05
    86 OT SD       0.80E-01   13.7     0.00000826     -6891.9690361248 -1.22E-04
    87 OT DIIS     0.80E-01   13.5     0.00003140     -6891.9690131421  2.30E-05
    88 OT DIIS     0.80E-01   13.5     0.00000751     -6891.9691362610 -1.23E-04
    89 OT SD       0.80E-01   13.5     0.00000715     -6891.9692147952 -7.85E-05
    90 OT DIIS     0.80E-01   13.5     0.00002552     -6891.9692027797  1.20E-05
    91 OT DIIS     0.80E-01   13.6     0.00000583     -6891.9692136518 -1.09E-05
    92 OT DIIS     0.80E-01   13.5     0.00000594     -6891.9693457536 -1.32E-04
    93 OT DIIS     0.80E-01   13.5     0.00000534     -6891.9693655042 -1.98E-05
    94 OT DIIS     0.80E-01   13.5     0.00000562     -6891.9693723460 -6.84E-06
    95 OT DIIS     0.80E-01   13.7     0.00000476     -6891.9694240702 -5.17E-05
    96 OT DIIS     0.80E-01   13.7     0.00000462     -6891.9694496820 -2.56E-05
    97 OT DIIS     0.80E-01   13.5     0.00000479     -6891.9694680936 -1.84E-05
    98 OT DIIS     0.80E-01   13.5     0.00000447     -6891.9695026048 -3.45E-05
    99 OT DIIS     0.80E-01   13.6     0.00000468     -6891.9695292671 -2.67E-05
   100 OT DIIS     0.80E-01   13.5     0.00000472     -6891.9695913716 -6.21E-05

  Leaving inner SCF loop after reaching   100 steps.


  Electronic density on regular grids:      -2431.9999999953        0.0000000047
  Core density on regular grids:             2431.9999999988       -0.0000000012
  Total charge density on r-space grids:        0.0000000035
  Total charge density g-space grids:           0.0000000035

  Overlap energy of the core charge distribution:               0.02784051173653
  Self energy of the core charge distribution:             -16017.19408509233290
  Core Hamiltonian energy:                                   4324.93295255808698
  Hartree energy:                                            6129.08583526200437
  Exchange-correlation energy:                              -1327.03465992439737
  Dispersion energy:                                           -1.78747468667528

  Total energy:                                             -6891.96959137157774

  outer SCF iter =    2 RMS gradient =   0.47E-05 energy =      -6891.9695913716

  ----------------------------------- OT ---------------------------------------
  Minimizer      : DIIS                : direct inversion
                                         in the iterative subspace
                                         using   7 DIIS vectors
                                         safer DIIS on
  Preconditioner : FULL_SINGLE_INVERSE : inversion of 
                                         H + eS - 2*(Sc)(c^T*H*c+const)(Sc)^T
  Precond_solver : DEFAULT
  stepsize       :    0.08000000                  energy_gap     :    0.08000000
  eps_taylor     :   0.10000E-15                  max_taylor     :             4
  ----------------------------------- OT ---------------------------------------

  Step     Update method      Time    Convergence         Total energy    Change
  ------------------------------------------------------------------------------
     1 OT DIIS     0.80E-01   34.6     0.00000544     -6891.9696049996 -1.36E-05
     2 OT DIIS     0.80E-01   12.7     0.00001138     -6891.9696127802 -7.78E-06
     3 OT DIIS     0.80E-01   12.9     0.00000542     -6891.9696187896 -6.01E-06
     4 OT DIIS     0.80E-01   13.0     0.00000494     -6891.9696225828 -3.79E-06
     5 OT DIIS     0.80E-01   13.0     0.00000513     -6891.9696390154 -1.64E-05
     6 OT DIIS     0.80E-01   13.0     0.00000536     -6891.9696695306 -3.05E-05
     7 OT DIIS     0.80E-01   13.1     0.00000544     -6891.9697261121 -5.66E-05
     8 OT DIIS     0.80E-01   13.0     0.00000455     -6891.9697756465 -4.95E-05
     9 OT DIIS     0.80E-01   12.8     0.00000484     -6891.9698007324 -2.51E-05
    10 OT DIIS     0.80E-01   12.9     0.00000430     -6891.9698364536 -3.57E-05
    11 OT DIIS     0.80E-01   13.0     0.00000394     -6891.9698574745 -2.10E-05
    12 OT DIIS     0.80E-01   12.9     0.00000372     -6891.9698779041 -2.04E-05
    13 OT DIIS     0.80E-01   12.8     0.00000390     -6891.9698970048 -1.91E-05
    14 OT DIIS     0.80E-01   13.0     0.00000380     -6891.9699162285 -1.92E-05
    15 OT DIIS     0.80E-01   13.1     0.00000389     -6891.9699323690 -1.61E-05
    16 OT DIIS     0.80E-01   12.8     0.00000381     -6891.9699449898 -1.26E-05
    17 OT DIIS     0.80E-01   12.8     0.00000333     -6891.9699666118 -2.16E-05
    18 OT DIIS     0.80E-01   12.8     0.00000347     -6891.9699769068 -1.03E-05
    19 OT DIIS     0.80E-01   12.9     0.00000356     -6891.9699803284 -3.42E-06
    20 OT DIIS     0.80E-01   13.0     0.00000334     -6891.9699923370 -1.20E-05
    21 OT DIIS     0.80E-01   13.0     0.00000329     -6891.9700051510 -1.28E-05
    22 OT DIIS     0.80E-01   13.0     0.00000376     -6891.9700116390 -6.49E-06
    23 OT DIIS     0.80E-01   13.1     0.00000365     -6891.9700265139 -1.49E-05
    24 OT SD       0.80E-01   13.2     0.00000366     -6891.9700369154 -1.04E-05
    25 OT DIIS     0.80E-01   13.0     0.00001315     -6891.9700349753  1.94E-06
    26 OT DIIS     0.80E-01   13.0     0.00000327     -6891.9700577539 -2.28E-05
    27 OT SD       0.80E-01   13.1     0.00000319     -6891.9700826030 -2.48E-05
    28 OT DIIS     0.80E-01   13.1     0.00000849     -6891.9700835337 -9.31E-07
    29 OT DIIS     0.80E-01   13.5     0.00000322     -6891.9700958439 -1.23E-05
    30 OT DIIS     0.80E-01   13.6     0.00000288     -6891.9701295992 -3.38E-05
    31 OT DIIS     0.80E-01   13.4     0.00000270     -6891.9701405125 -1.09E-05
    32 OT DIIS     0.80E-01   13.5     0.00000278     -6891.9701535238 -1.30E-05
    33 OT DIIS     0.80E-01   13.6     0.00000272     -6891.9701713585 -1.78E-05
    34 OT DIIS     0.80E-01   13.5     0.00000272     -6891.9701723063 -9.48E-07
    35 OT DIIS     0.80E-01   13.5     0.00000264     -6891.9701994240 -2.71E-05
    36 OT DIIS     0.80E-01   13.3     0.00000264     -6891.9702156825 -1.63E-05
    37 OT SD       0.80E-01   13.7     0.00000257     -6891.9702267428 -1.11E-05
    38 OT SD       0.80E-01   13.5     0.00000491     -6891.9702285063 -1.76E-06
    39 OT DIIS     0.80E-01   13.6     0.00002378     -6891.9702111053  1.74E-05
    40 OT DIIS     0.80E-01   13.5     0.00000243     -6891.9702329537 -2.18E-05
    41 OT DIIS     0.80E-01   13.6     0.00000231     -6891.9702336302 -6.76E-07
    42 OT DIIS     0.80E-01   13.5     0.00000237     -6891.9702368311 -3.20E-06
    43 OT DIIS     0.80E-01   13.5     0.00000251     -6891.9702439565 -7.13E-06
    44 OT DIIS     0.80E-01   13.6     0.00000242     -6891.9702525726 -8.62E-06
    45 OT DIIS     0.80E-01   13.5     0.00000241     -6891.9702553777 -2.81E-06
    46 OT DIIS     0.80E-01   13.7     0.00000216     -6891.9702664976 -1.11E-05
    47 OT SD       0.80E-01   13.4     0.00000205     -6891.9702792203 -1.27E-05
    48 OT DIIS     0.80E-01   13.5     0.00000547     -6891.9702798233 -6.03E-07
    49 OT DIIS     0.80E-01   13.4     0.00000193     -6891.9702883679 -8.54E-06
    50 OT DIIS     0.80E-01   13.4     0.00000194     -6891.9702929527 -4.58E-06
    51 OT DIIS     0.80E-01   13.6     0.00000186     -6891.9702974591 -4.51E-06
    52 OT DIIS     0.80E-01   13.5     0.00000204     -6891.9703022132 -4.75E-06
    53 OT DIIS     0.80E-01   13.4     0.00000180     -6891.9703136195 -1.14E-05
    54 OT DIIS     0.80E-01   13.5     0.00000169     -6891.9703237050 -1.01E-05
    55 OT DIIS     0.80E-01   13.4     0.00000171     -6891.9703245933 -8.88E-07
    56 OT DIIS     0.80E-01   13.7     0.00000178     -6891.9703346682 -1.01E-05
    57 OT DIIS     0.80E-01   13.3     0.00000164     -6891.9703404322 -5.76E-06
    58 OT DIIS     0.80E-01   13.6     0.00000168     -6891.9703493578 -8.93E-06
    59 OT DIIS     0.80E-01   13.4     0.00000161     -6891.9703580812 -8.72E-06
    60 OT DIIS     0.80E-01   13.5     0.00000157     -6891.9703630832 -5.00E-06
    61 OT DIIS     0.80E-01   13.4     0.00000155     -6891.9703656587 -2.58E-06
    62 OT DIIS     0.80E-01   13.4     0.00000174     -6891.9703691939 -3.54E-06
    63 OT DIIS     0.80E-01   13.5     0.00000160     -6891.9703769253 -7.73E-06
    64 OT DIIS     0.80E-01   13.5     0.00000153     -6891.9703775764 -6.51E-07
    65 OT DIIS     0.80E-01   13.5     0.00000160     -6891.9703840508 -6.47E-06
    66 OT SD       0.80E-01   13.4     0.00000151     -6891.9703880413 -3.99E-06
    67 OT DIIS     0.80E-01   13.5     0.00000390     -6891.9703884389 -3.98E-07
    68 OT DIIS     0.80E-01   13.6     0.00000145     -6891.9703963495 -7.91E-06
    69 OT DIIS     0.80E-01   13.7     0.00000154     -6891.9703970416 -6.92E-07
    70 OT SD       0.80E-01   13.5     0.00000150     -6891.9704035641 -6.52E-06
    71 OT DIIS     0.80E-01   13.4     0.00000440     -6891.9704037278 -1.64E-07
    72 OT DIIS     0.80E-01   13.5     0.00000137     -6891.9704148858 -1.12E-05
    73 OT SD       0.80E-01   13.6     0.00000129     -6891.9704196903 -4.80E-06
    74 OT DIIS     0.80E-01   13.7     0.00000221     -6891.9704202920 -6.02E-07
    75 OT DIIS     0.80E-01   13.5     0.00000127     -6891.9704267768 -6.48E-06
    76 OT DIIS     0.80E-01   13.4     0.00000136     -6891.9704312668 -4.49E-06
    77 OT DIIS     0.80E-01   13.7     0.00000146     -6891.9704336124 -2.35E-06
    78 OT DIIS     0.80E-01   13.6     0.00000127     -6891.9704423028 -8.69E-06
    79 OT DIIS     0.80E-01   13.6     0.00000130     -6891.9704502226 -7.92E-06
    80 OT SD       0.80E-01   13.5     0.00000121     -6891.9704516876 -1.47E-06
    81 OT SD       0.80E-01   13.6     0.00000161     -6891.9704522405 -5.53E-07
    82 OT DIIS     0.80E-01   13.4     0.00000591     -6891.9704515455  6.95E-07
    83 OT SD       0.80E-01   13.4     0.00000115     -6891.9704563977 -4.85E-06
    84 OT DIIS     0.80E-01   13.6     0.00000225     -6891.9704568020 -4.04E-07
    85 OT DIIS     0.80E-01   13.5     0.00000115     -6891.9704637925 -6.99E-06
    86 OT DIIS     0.80E-01   13.6     0.00000133     -6891.9704709001 -7.11E-06
    87 OT SD       0.80E-01   13.5     0.00000123     -6891.9704769936 -6.09E-06
    88 OT SD       0.80E-01   13.3     0.00000288     -6891.9704771348 -1.41E-07
    89 OT DIIS     0.80E-01   13.4     0.00001392     -6891.9704704553  6.68E-06
    90 OT DIIS     0.80E-01   13.5     0.00000104     -6891.9704817703 -1.13E-05
    91 OT SD       0.80E-01   13.6     0.00000100     -6891.9704839481 -2.18E-06

  *** SCF run converged in    91 steps ***


  Electronic density on regular grids:      -2431.9999999953        0.0000000047
  Core density on regular grids:             2431.9999999988       -0.0000000012
  Total charge density on r-space grids:        0.0000000035
  Total charge density g-space grids:           0.0000000035

  Overlap energy of the core charge distribution:               0.02784051173653
  Self energy of the core charge distribution:             -16017.19408509233290
  Core Hamiltonian energy:                                   4324.92718360635172
  Hartree energy:                                            6129.08987785633417
  Exchange-correlation energy:                              -1327.03382614347197
  Dispersion energy:                                           -1.78747468667528

  Total energy:                                             -6891.97048394805643

  outer SCF iter =    3 RMS gradient =   0.10E-05 energy =      -6891.9704839481
  outer SCF loop converged in   3 iterations or  291 steps


 ENERGY| Total FORCE_EVAL ( QS ) energy [hartree]          -6891.970484221878905

 Number of electrons:                                                       2432
 Number of occupied orbitals:                                               1216
 Number of molecular orbitals:                                              1216

 Number of orbital functions:                                               4983
 Number of independent orbital functions:                                   4983

 Extrapolation method: ASPC


 SCF WAVEFUNCTION OPTIMIZATION

  ----------------------------------- OT ---------------------------------------
  Minimizer      : DIIS                : direct inversion
                                         in the iterative subspace
                                         using   7 DIIS vectors
                                         safer DIIS on
  Preconditioner : FULL_SINGLE_INVERSE : inversion of 
                                         H + eS - 2*(Sc)(c^T*H*c+const)(Sc)^T
  Precond_solver : DEFAULT
  stepsize       :    0.08000000                  energy_gap     :    0.08000000
  eps_taylor     :   0.10000E-15                  max_taylor     :             4
  ----------------------------------- OT ---------------------------------------

  Step     Update method      Time    Convergence         Total energy    Change
  ------------------------------------------------------------------------------
     1 OT DIIS     0.80E-01   17.4     0.00535219     -6881.9705114391 -6.88E+03
     2 OT DIIS     0.80E-01   13.4     0.00437051     -6893.7901908699 -1.18E+01
     3 OT DIIS     0.80E-01   13.5     0.00320702     -6901.0791012667 -7.29E+00
     4 OT DIIS     0.80E-01   13.4     0.00188246     -6904.6148763278 -3.54E+00
     5 OT DIIS     0.80E-01   13.3     0.00119401     -6905.3683780816 -7.54E-01
     6 OT DIIS     0.80E-01   13.7     0.00112221     -6905.6253656302 -2.57E-01
     7 OT DIIS     0.80E-01   13.4     0.00082710     -6905.8481893646 -2.23E-01
     8 OT DIIS     0.80E-01   13.5     0.00048120     -6906.0151149656 -1.67E-01
     9 OT DIIS     0.80E-01   13.3     0.00039684     -6906.1013547727 -8.62E-02
    10 OT DIIS     0.80E-01   13.6     0.00033963     -6906.1686461426 -6.73E-02
    11 OT DIIS     0.80E-01   13.5     0.00025196     -6906.2072125201 -3.86E-02
    12 OT DIIS     0.80E-01   13.5     0.00021260     -6906.2464720450 -3.93E-02
    13 OT DIIS     0.80E-01   13.6     0.00018614     -6906.2821269059 -3.57E-02
    14 OT DIIS     0.80E-01   13.4     0.00018803     -6906.3051282936 -2.30E-02
    15 OT DIIS     0.80E-01   13.7     0.00016226     -6906.3275442784 -2.24E-02
    16 OT DIIS     0.80E-01   13.6     0.00013628     -6906.3393597041 -1.18E-02
    17 OT DIIS     0.80E-01   13.4     0.00011821     -6906.3501999689 -1.08E-02
    18 OT DIIS     0.80E-01   13.4     0.00011247     -6906.3619651950 -1.18E-02
    19 OT DIIS     0.80E-01   13.5     0.00010236     -6906.3684659003 -6.50E-03
    20 OT DIIS     0.80E-01   13.7     0.00008771     -6906.3779656017 -9.50E-03
    21 OT DIIS     0.80E-01   13.6     0.00008205     -6906.3844790714 -6.51E-03
    22 OT DIIS     0.80E-01   13.6     0.00007858     -6906.3896178907 -5.14E-03
    23 OT DIIS     0.80E-01   13.5     0.00007374     -6906.3949188054 -5.30E-03
    24 OT DIIS     0.80E-01   13.6     0.00007234     -6906.3989503394 -4.03E-03
    25 OT DIIS     0.80E-01   13.5     0.00006570     -6906.4034055519 -4.46E-03
    26 OT DIIS     0.80E-01   13.5     0.00006201     -6906.4080101984 -4.60E-03
    27 OT DIIS     0.80E-01   13.4     0.00005958     -6906.4104016702 -2.39E-03
    28 OT DIIS     0.80E-01   13.6     0.00005401     -6906.4140156714 -3.61E-03
    29 OT DIIS     0.80E-01   13.6     0.00005205     -6906.4165812844 -2.57E-03
    30 OT DIIS     0.80E-01   13.7     0.00005163     -6906.4194690573 -2.89E-03
    31 OT DIIS     0.80E-01   13.6     0.00004939     -6906.4223034488 -2.83E-03
    32 OT DIIS     0.80E-01   13.7     0.00004866     -6906.4245419854 -2.24E-03
    33 OT DIIS     0.80E-01   13.5     0.00004586     -6906.4266744627 -2.13E-03
    34 OT DIIS     0.80E-01   13.5     0.00004440     -6906.4289120087 -2.24E-03
    35 OT DIIS     0.80E-01   13.5     0.00004419     -6906.4304491331 -1.54E-03
    36 OT DIIS     0.80E-01   13.5     0.00004211     -6906.4328381184 -2.39E-03
    37 OT DIIS     0.80E-01   13.7     0.00004160     -6906.4349375258 -2.10E-03
    38 OT DIIS     0.80E-01   13.6     0.00004096     -6906.4369819815 -2.04E-03
    39 OT DIIS     0.80E-01   13.7     0.00003990     -6906.4387096048 -1.73E-03
    40 OT DIIS     0.80E-01   13.5     0.00003953     -6906.4401502375 -1.44E-03
    41 OT DIIS     0.80E-01   13.5     0.00003907     -6906.4418301796 -1.68E-03
    42 OT DIIS     0.80E-01   13.5     0.00003857     -6906.4441783806 -2.35E-03
    43 OT DIIS     0.80E-01   13.5     0.00003893     -6906.4461266912 -1.95E-03
    44 OT DIIS     0.80E-01   13.6     0.00003756     -6906.4486137747 -2.49E-03
    45 OT DIIS     0.80E-01   13.5     0.00003690     -6906.4499950775 -1.38E-03
    46 OT DIIS     0.80E-01   13.6     0.00003650     -6906.4512151005 -1.22E-03
    47 OT DIIS     0.80E-01   13.5     0.00003678     -6906.4542577865 -3.04E-03
    48 OT DIIS     0.80E-01   13.6     0.00003711     -6906.4574903975 -3.23E-03
    49 OT DIIS     0.80E-01   13.6     0.00003712     -6906.4608759447 -3.39E-03
    50 OT DIIS     0.80E-01   13.5     0.00003759     -6906.4633176501 -2.44E-03
    51 OT SD       0.80E-01   13.5     0.00003735     -6906.4634246674 -1.07E-04
    52 OT DIIS     0.80E-01   13.5     0.00003432     -6906.4640179008 -5.93E-04
    53 OT DIIS     0.80E-01   13.3     0.00003754     -6906.4677438311 -3.73E-03
    54 OT DIIS     0.80E-01   13.4     0.00003307     -6906.4736640282 -5.92E-03
    55 OT DIIS     0.80E-01   13.5     0.00003426     -6906.4779846895 -4.32E-03
    56 OT DIIS     0.80E-01   13.5     0.00002975     -6906.4791557278 -1.17E-03
    57 OT DIIS     0.80E-01   13.5     0.00002672     -6906.4806509545 -1.50E-03
    58 OT DIIS     0.80E-01   13.6     0.00002576     -6906.4820671114 -1.42E-03
    59 OT DIIS     0.80E-01   13.6     0.00002813     -6906.4842811947 -2.21E-03
    60 OT DIIS     0.80E-01   13.5     0.00002530     -6906.4863404414 -2.06E-03
    61 OT DIIS     0.80E-01   13.5     0.00002225     -6906.4870990364 -7.59E-04
    62 OT DIIS     0.80E-01   13.6     0.00002416     -6906.4885326049 -1.43E-03
    63 OT DIIS     0.80E-01   13.5     0.00002347     -6906.4887327032 -2.00E-04
    64 OT DIIS     0.80E-01   13.7     0.00001983     -6906.4901337308 -1.40E-03
    65 OT DIIS     0.80E-01   13.5     0.00002103     -6906.4905853246 -4.52E-04
    66 OT DIIS     0.80E-01   13.5     0.00001972     -6906.4919264551 -1.34E-03
    67 OT DIIS     0.80E-01   13.5     0.00001902     -6906.4925731479 -6.47E-04
    68 OT DIIS     0.80E-01   13.5     0.00001699     -6906.4929888488 -4.16E-04
    69 OT DIIS     0.80E-01   13.5     0.00001722     -6906.4934476801 -4.59E-04
    70 OT DIIS     0.80E-01   13.5     0.00001545     -6906.4940368000 -5.89E-04
    71 OT DIIS     0.80E-01   13.4     0.00001747     -6906.4945616218 -5.25E-04
    72 OT DIIS     0.80E-01   13.5     0.00001413     -6906.4952389844 -6.77E-04
    73 OT DIIS     0.80E-01   13.6     0.00001367     -6906.4957881195 -5.49E-04
    74 OT DIIS     0.80E-01   13.4     0.00001382     -6906.4959361975 -1.48E-04
    75 OT DIIS     0.80E-01   13.4     0.00001320     -6906.4960374894 -1.01E-04
    76 OT DIIS     0.80E-01   13.4     0.00001227     -6906.4963846742 -3.47E-04
    77 OT DIIS     0.80E-01   13.5     0.00001141     -6906.4966378545 -2.53E-04
    78 OT DIIS     0.80E-01   13.7     0.00001122     -6906.4968551807 -2.17E-04
    79 OT DIIS     0.80E-01   13.4     0.00001083     -6906.4969995051 -1.44E-04
    80 OT DIIS     0.80E-01   13.6     0.00001055     -6906.4972453222 -2.46E-04
    81 OT DIIS     0.80E-01   13.6     0.00001029     -6906.4974603119 -2.15E-04
    82 OT DIIS     0.80E-01   13.4     0.00001034     -6906.4976459439 -1.86E-04
    83 OT DIIS     0.80E-01   13.5     0.00001044     -6906.4979209335 -2.75E-04
    84 OT DIIS     0.80E-01   13.4     0.00001019     -6906.4979523552 -3.14E-05
    85 OT DIIS     0.80E-01   13.5     0.00000964     -6906.4982084249 -2.56E-04
    86 OT DIIS     0.80E-01   13.4     0.00000930     -6906.4984411119 -2.33E-04
    87 OT DIIS     0.80E-01   13.5     0.00000914     -6906.4985413893 -1.00E-04
    88 OT DIIS     0.80E-01   13.6     0.00000883     -6906.4986913564 -1.50E-04
    89 OT DIIS     0.80E-01   13.5     0.00000867     -6906.4988685804 -1.77E-04
    90 OT DIIS     0.80E-01   13.5     0.00000874     -6906.4990808947 -2.12E-04
    91 OT DIIS     0.80E-01   13.5     0.00000872     -6906.4993339228 -2.53E-04
    92 OT DIIS     0.80E-01   13.6     0.00000861     -6906.4993825835 -4.87E-05
    93 OT DIIS     0.80E-01   13.7     0.00000815     -6906.4995748558 -1.92E-04
    94 OT DIIS     0.80E-01   13.6     0.00000790     -6906.4997307899 -1.56E-04
    95 OT DIIS     0.80E-01   13.6     0.00000783     -6906.4997940966 -6.33E-05
    96 OT DIIS     0.80E-01   13.6     0.00000780     -6906.4999698939 -1.76E-04
    97 OT DIIS     0.80E-01   13.7     0.00000766     -6906.5001940839 -2.24E-04
    98 OT DIIS     0.80E-01   13.6     0.00000761     -6906.5003922443 -1.98E-04
    99 OT DIIS     0.80E-01   13.7     0.00000737     -6906.5005657734 -1.74E-04
   100 OT DIIS     0.80E-01   13.5     0.00000725     -6906.5005912578 -2.55E-05

  Leaving inner SCF loop after reaching   100 steps.


  Electronic density on regular grids:      -2431.9999999928        0.0000000072
  Core density on regular grids:             2431.9999999988       -0.0000000012
  Total charge density on r-space grids:        0.0000000061
  Total charge density g-space grids:           0.0000000061

  Overlap energy of the core charge distribution:               0.05940236042155
  Self energy of the core charge distribution:             -16017.19408509233290
  Core Hamiltonian energy:                                   4291.95974328209650
  Hartree energy:                                            6144.48980518770622
  Exchange-correlation energy:                              -1324.02876474060372
  Dispersion energy:                                           -1.78669225511608

  Total energy:                                             -6906.50059125782809

  outer SCF iter =    1 RMS gradient =   0.73E-05 energy =      -6906.5005912578

  ----------------------------------- OT ---------------------------------------
  Minimizer      : DIIS                : direct inversion
                                         in the iterative subspace
                                         using   7 DIIS vectors
                                         safer DIIS on
  Preconditioner : FULL_SINGLE_INVERSE : inversion of 
                                         H + eS - 2*(Sc)(c^T*H*c+const)(Sc)^T
  Precond_solver : DEFAULT
  stepsize       :    0.08000000                  energy_gap     :    0.08000000
  eps_taylor     :   0.10000E-15                  max_taylor     :             4
  ----------------------------------- OT ---------------------------------------

  Step     Update method      Time    Convergence         Total energy    Change
  ------------------------------------------------------------------------------
     1 OT DIIS     0.80E-01   35.9     0.00002353     -6906.5006895757 -9.83E-05
     2 OT DIIS     0.80E-01   13.2     0.00002141     -6906.5009256381 -2.36E-04
     3 OT DIIS     0.80E-01   13.0     0.00002776     -6906.5010548588 -1.29E-04
     4 OT DIIS     0.80E-01   13.0     0.00002512     -6906.5012307502 -1.76E-04
     5 OT DIIS     0.80E-01   13.1     0.00001989     -6906.5014540169 -2.23E-04
     6 OT DIIS     0.80E-01   12.9     0.00001928     -6906.5016163613 -1.62E-04
     7 OT DIIS     0.80E-01   13.1     0.00001657     -6906.5017459250 -1.30E-04
     8 OT DIIS     0.80E-01   13.0     0.00001589     -6906.5019383865 -1.92E-04
     9 OT DIIS     0.80E-01   12.9     0.00001520     -6906.5020087884 -7.04E-05
    10 OT DIIS     0.80E-01   13.0     0.00001501     -6906.5021831162 -1.74E-04
    11 OT DIIS     0.80E-01   13.0     0.00001349     -6906.5023513819 -1.68E-04
    12 OT DIIS     0.80E-01   13.1     0.00001302     -6906.5025020284 -1.51E-04
    13 OT DIIS     0.80E-01   13.1     0.00001354     -6906.5026323288 -1.30E-04
    14 OT DIIS     0.80E-01   13.1     0.00001291     -6906.5027497384 -1.17E-04
    15 OT DIIS     0.80E-01   13.0     0.00001277     -6906.5028657304 -1.16E-04
    16 OT DIIS     0.80E-01   12.9     0.00001243     -6906.5029875060 -1.22E-04
    17 OT DIIS     0.80E-01   12.9     0.00001130     -6906.5031735106 -1.86E-04
    18 OT DIIS     0.80E-01   12.9     0.00001140     -6906.5033011244 -1.28E-04
    19 OT DIIS     0.80E-01   12.9     0.00001179     -6906.5034300135 -1.29E-04
    20 OT DIIS     0.80E-01   12.8     0.00001140     -6906.5035497101 -1.20E-04
    21 OT DIIS     0.80E-01   13.0     0.00001127     -6906.5036991715 -1.49E-04
    22 OT DIIS     0.80E-01   13.0     0.00001175     -6906.5038425300 -1.43E-04
    23 OT DIIS     0.80E-01   13.1     0.00001131     -6906.5039789379 -1.36E-04
    24 OT DIIS     0.80E-01   13.1     0.00001119     -6906.5040943717 -1.15E-04
    25 OT DIIS     0.80E-01   13.2     0.00001115     -6906.5041090033 -1.46E-05
    26 OT DIIS     0.80E-01   13.7     0.00001030     -6906.5043217896 -2.13E-04
    27 OT DIIS     0.80E-01   13.5     0.00001118     -6906.5044176601 -9.59E-05
    28 OT DIIS     0.80E-01   13.4     0.00001127     -6906.5044657451 -4.81E-05
    29 OT DIIS     0.80E-01   13.5     0.00001112     -6906.5045071867 -4.14E-05
    30 OT DIIS     0.80E-01   13.5     0.00001164     -6906.5045755506 -6.84E-05
    31 OT SD       0.80E-01   13.6     0.00001080     -6906.5045907234 -1.52E-05
    32 OT DIIS     0.80E-01   13.8     0.00003796     -6906.5045745380  1.62E-05
    33 OT SD       0.80E-01   13.6     0.00000982     -6906.5047084347 -1.34E-04
    34 OT DIIS     0.80E-01   13.5     0.00002830     -6906.5047110954 -2.66E-06
    35 OT DIIS     0.80E-01   13.6     0.00000963     -6906.5047777464 -6.67E-05
    36 OT DIIS     0.80E-01   13.6     0.00000937     -6906.5048420621 -6.43E-05
    37 OT DIIS     0.80E-01   13.5     0.00000866     -6906.5051501710 -3.08E-04
    38 OT SD       0.80E-01   13.7     0.00001044     -6906.5051891941 -3.90E-05
    39 OT DIIS     0.80E-01   13.7     0.00004004     -6906.5051569791  3.22E-05
    40 OT SD       0.80E-01   13.6     0.00000761     -6906.5053514418 -1.94E-04
    41 OT DIIS     0.80E-01   13.6     0.00001560     -6906.5053677466 -1.63E-05
    42 OT DIIS     0.80E-01   13.7     0.00000772     -6906.5054622405 -9.45E-05
    43 OT DIIS     0.80E-01   13.5     0.00000722     -6906.5056216047 -1.59E-04
    44 OT SD       0.80E-01   13.6     0.00000698     -6906.5057080619 -8.65E-05
    45 OT DIIS     0.80E-01   13.5     0.00001018     -6906.5057275493 -1.95E-05
    46 OT DIIS     0.80E-01   13.5     0.00000701     -6906.5058334864 -1.06E-04
    47 OT DIIS     0.80E-01   13.8     0.00000697     -6906.5059751360 -1.42E-04
    48 OT DIIS     0.80E-01   13.5     0.00000740     -6906.5061160007 -1.41E-04
    49 OT DIIS     0.80E-01   13.6     0.00000723     -6906.5062930873 -1.77E-04
    50 OT SD       0.80E-01   13.5     0.00000694     -6906.5063439238 -5.08E-05
    51 OT DIIS     0.80E-01   13.4     0.00001010     -6906.5063600644 -1.61E-05
    52 OT DIIS     0.80E-01   13.5     0.00000680     -6906.5063861692 -2.61E-05
    53 OT DIIS     0.80E-01   13.6     0.00000650     -6906.5064811878 -9.50E-05
    54 OT DIIS     0.80E-01   13.6     0.00000646     -6906.5065591614 -7.80E-05
    55 OT DIIS     0.80E-01   13.7     0.00000670     -6906.5066081111 -4.89E-05
    56 OT DIIS     0.80E-01   13.6     0.00000625     -6906.5067535161 -1.45E-04
    57 OT SD       0.80E-01   13.5     0.00000723     -6906.5068823054 -1.29E-04
    58 OT DIIS     0.80E-01   13.5     0.00002323     -6906.5068777921  4.51E-06
    59 OT DIIS     0.80E-01   13.4     0.00000657     -6906.5068565815  2.12E-05
    60 OT SD       0.80E-01   13.4     0.00000628     -6906.5070363498 -1.80E-04
    61 OT DIIS     0.80E-01   13.6     0.00001519     -6906.5070411263 -4.78E-06
    62 OT DIIS     0.80E-01   13.7     0.00000537     -6906.5070876689 -4.65E-05
    63 OT DIIS     0.80E-01   13.6     0.00000562     -6906.5071980456 -1.10E-04
    64 OT DIIS     0.80E-01   13.6     0.00000526     -6906.5072295098 -3.15E-05
    65 OT DIIS     0.80E-01   13.5     0.00000548     -6906.5073014374 -7.19E-05
    66 OT DIIS     0.80E-01   13.7     0.00000506     -6906.5073817368 -8.03E-05
    67 OT DIIS     0.80E-01   13.6     0.00000522     -6906.5074038561 -2.21E-05
    68 OT DIIS     0.80E-01   13.4     0.00000590     -6906.5074170997 -1.32E-05
    69 OT DIIS     0.80E-01   13.6     0.00000499     -6906.5075172015 -1.00E-04
    70 OT DIIS     0.80E-01   13.7     0.00000506     -6906.5075739678 -5.68E-05
    71 OT DIIS     0.80E-01   13.6     0.00000516     -6906.5075786130 -4.65E-06
    72 OT DIIS     0.80E-01   13.5     0.00000485     -6906.5076339830 -5.54E-05
    73 OT DIIS     0.80E-01   13.5     0.00000456     -6906.5076905281 -5.65E-05
    74 OT DIIS     0.80E-01   13.7     0.00000490     -6906.5077380992 -4.76E-05
    75 OT DIIS     0.80E-01   13.4     0.00000446     -6906.5077746019 -3.65E-05
    76 OT DIIS     0.80E-01   13.7     0.00000441     -6906.5078304993 -5.59E-05
    77 OT SD       0.80E-01   13.8     0.00000473     -6906.5078644664 -3.40E-05
    78 OT DIIS     0.80E-01   13.6     0.00001610     -6906.5078618267  2.64E-06
    79 OT DIIS     0.80E-01   13.5     0.00000408     -6906.5079294793 -6.77E-05
    80 OT DIIS     0.80E-01   13.7     0.00000387     -6906.5079485150 -1.90E-05
    81 OT DIIS     0.80E-01   13.3     0.00000384     -6906.5079683035 -1.98E-05
    82 OT DIIS     0.80E-01   14.0     0.00000364     -6906.5079870999 -1.88E-05
    83 OT DIIS     0.80E-01   13.6     0.00000362     -6906.5080061628 -1.91E-05
    84 OT DIIS     0.80E-01   13.6     0.00000381     -6906.5080304969 -2.43E-05
    85 OT DIIS     0.80E-01   13.5     0.00000348     -6906.5080459297 -1.54E-05
    86 OT DIIS     0.80E-01   13.6     0.00000343     -6906.5080728558 -2.69E-05
    87 OT SD       0.80E-01   13.7     0.00000343     -6906.5080942558 -2.14E-05
    88 OT DIIS     0.80E-01   13.8     0.00000657     -6906.5080977986 -3.54E-06
    89 OT DIIS     0.80E-01   13.4     0.00000329     -6906.5081066299 -8.83E-06
    90 OT DIIS     0.80E-01   13.6     0.00000333     -6906.5081295508 -2.29E-05
    91 OT DIIS     0.80E-01   13.6     0.00000326     -6906.5081582618 -2.87E-05
    92 OT DIIS     0.80E-01   13.5     0.00000336     -6906.5081795991 -2.13E-05
    93 OT SD       0.80E-01   13.6     0.00000370     -6906.5081835652 -3.97E-06
    94 OT DIIS     0.80E-01   13.4     0.00001233     -6906.5081826600  9.05E-07
    95 OT DIIS     0.80E-01   13.5     0.00000312     -6906.5082149784 -3.23E-05
    96 OT DIIS     0.80E-01   13.5     0.00000320     -6906.5082363447 -2.14E-05
    97 OT DIIS     0.80E-01   13.6     0.00000313     -6906.5082527239 -1.64E-05
    98 OT SD       0.80E-01   13.5     0.00000341     -6906.5082570515 -4.33E-06
    99 OT DIIS     0.80E-01   13.5     0.00001002     -6906.5082573383 -2.87E-07
   100 OT SD       0.80E-01   13.9     0.00000314     -6906.5083021985 -4.49E-05

  Leaving inner SCF loop after reaching   100 steps.


  Electronic density on regular grids:      -2431.9999999928        0.0000000072
  Core density on regular grids:             2431.9999999988       -0.0000000012
  Total charge density on r-space grids:        0.0000000061
  Total charge density g-space grids:           0.0000000061

  Overlap energy of the core charge distribution:               0.05940236042155
  Self energy of the core charge distribution:             -16017.19408509233290
  Core Hamiltonian energy:                                   4291.87812960606789
  Hartree energy:                                            6144.55298160764414
  Exchange-correlation energy:                              -1324.01803842513891
  Dispersion energy:                                           -1.78669225511608

  Total energy:                                             -6906.50830219845466

  outer SCF iter =    2 RMS gradient =   0.31E-05 energy =      -6906.5083021985

  ----------------------------------- OT ---------------------------------------
  Minimizer      : DIIS                : direct inversion
                                         in the iterative subspace
                                         using   7 DIIS vectors
                                         safer DIIS on
  Preconditioner : FULL_SINGLE_INVERSE : inversion of 
                                         H + eS - 2*(Sc)(c^T*H*c+const)(Sc)^T
  Precond_solver : DEFAULT
  stepsize       :    0.08000000                  energy_gap     :    0.08000000
  eps_taylor     :   0.10000E-15                  max_taylor     :             4
  ----------------------------------- OT ---------------------------------------

  Step     Update method      Time    Convergence         Total energy    Change
  ------------------------------------------------------------------------------
     1 OT DIIS     0.80E-01   35.3     0.00000639     -6906.5083047233 -2.52E-06
     2 OT DIIS     0.80E-01   12.7     0.00002945     -6906.5082782236  2.65E-05
     3 OT DIIS     0.80E-01   12.9     0.00000438     -6906.5083108741 -3.27E-05
     4 OT DIIS     0.80E-01   12.9     0.00000325     -6906.5083124932 -1.62E-06
     5 OT DIIS     0.80E-01   12.8     0.00000308     -6906.5083142106 -1.72E-06
     6 OT DIIS     0.80E-01   13.0     0.00000319     -6906.5083188205 -4.61E-06
     7 OT DIIS     0.80E-01   12.9     0.00000327     -6906.5083391659 -2.03E-05
     8 OT SD       0.80E-01   12.9     0.00000322     -6906.5083731305 -3.40E-05
     9 OT DIIS     0.80E-01   13.0     0.00000884     -6906.5083741132 -9.83E-07
    10 OT DIIS     0.80E-01   12.9     0.00000292     -6906.5084046633 -3.06E-05
    11 OT DIIS     0.80E-01   13.0     0.00000289     -6906.5084122700 -7.61E-06
    12 OT DIIS     0.80E-01   12.8     0.00000287     -6906.5084173002 -5.03E-06
    13 OT DIIS     0.80E-01   12.9     0.00000276     -6906.5084298021 -1.25E-05
    14 OT DIIS     0.80E-01   13.1     0.00000267     -6906.5084500770 -2.03E-05
    15 OT DIIS     0.80E-01   13.1     0.00000256     -6906.5084624475 -1.24E-05
    16 OT DIIS     0.80E-01   13.1     0.00000267     -6906.5084721410 -9.69E-06
    17 OT DIIS     0.80E-01   13.0     0.00000257     -6906.5084892259 -1.71E-05
    18 OT DIIS     0.80E-01   13.1     0.00000259     -6906.5084945596 -5.33E-06
    19 OT DIIS     0.80E-01   13.0     0.00000256     -6906.5085148500 -2.03E-05
    20 OT DIIS     0.80E-01   13.1     0.00000246     -6906.5085319336 -1.71E-05
    21 OT DIIS     0.80E-01   12.9     0.00000243     -6906.5085397218 -7.79E-06
    22 OT DIIS     0.80E-01   13.0     0.00000244     -6906.5085493660 -9.64E-06
    23 OT DIIS     0.80E-01   12.9     0.00000245     -6906.5085626811 -1.33E-05
    24 OT DIIS     0.80E-01   13.1     0.00000241     -6906.5085749806 -1.23E-05
    25 OT DIIS     0.80E-01   13.1     0.00000239     -6906.5085832629 -8.28E-06
    26 OT DIIS     0.80E-01   13.3     0.00000239     -6906.5086071146 -2.39E-05
    27 OT SD       0.80E-01   13.1     0.00000231     -6906.5086094211 -2.31E-06
    28 OT DIIS     0.80E-01   13.0     0.00000301     -6906.5086117096 -2.29E-06
    29 OT DIIS     0.80E-01   13.0     0.00000230     -6906.5086230437 -1.13E-05
    30 OT DIIS     0.80E-01   13.1     0.00000227     -6906.5086343036 -1.13E-05
    31 OT DIIS     0.80E-01   13.2     0.00000233     -6906.5086480888 -1.38E-05
    32 OT DIIS     0.80E-01   13.0     0.00000230     -6906.5086619566 -1.39E-05
    33 OT SD       0.80E-01   13.0     0.00000226     -6906.5086710827 -9.13E-06
    34 OT DIIS     0.80E-01   13.1     0.00000339     -6906.5086731407 -2.06E-06
    35 OT DIIS     0.80E-01   13.0     0.00000222     -6906.5086837191 -1.06E-05
    36 OT DIIS     0.80E-01   12.9     0.00000224     -6906.5086926412 -8.92E-06
    37 OT DIIS     0.80E-01   13.0     0.00000223     -6906.5087030237 -1.04E-05
    38 OT DIIS     0.80E-01   13.0     0.00000223     -6906.5087269741 -2.40E-05
    39 OT DIIS     0.80E-01   13.0     0.00000222     -6906.5087388951 -1.19E-05
    40 OT SD       0.80E-01   13.0     0.00000222     -6906.5087456650 -6.77E-06
    41 OT DIIS     0.80E-01   13.1     0.00000344     -6906.5087475537 -1.89E-06
    42 OT DIIS     0.80E-01   13.1     0.00000221     -6906.5087687998 -2.12E-05
    43 OT DIIS     0.80E-01   13.0     0.00000228     -6906.5087793094 -1.05E-05
    44 OT DIIS     0.80E-01   13.1     0.00000221     -6906.5087973670 -1.81E-05
    45 OT SD       0.80E-01   13.2     0.00000239     -6906.5088233714 -2.60E-05
    46 OT SD       0.80E-01   13.0     0.00000343     -6906.5088251613 -1.79E-06
    47 OT DIIS     0.80E-01   12.9     0.00001321     -6906.5088210402  4.12E-06
    48 OT DIIS     0.80E-01   13.0     0.00000207     -6906.5088262904 -5.25E-06
    49 OT DIIS     0.80E-01   13.5     0.00000218     -6906.5088504169 -2.41E-05
    50 OT DIIS     0.80E-01   13.3     0.00000218     -6906.5088505480 -1.31E-07
    51 OT DIIS     0.80E-01   13.1     0.00000238     -6906.5088615105 -1.10E-05
    52 OT SD       0.80E-01   13.1     0.00000219     -6906.5088835833 -2.21E-05
    53 OT DIIS     0.80E-01   13.5     0.00000437     -6906.5088848587 -1.28E-06
    54 OT DIIS     0.80E-01   13.4     0.00000236     -6906.5089071245 -2.23E-05
    55 OT DIIS     0.80E-01   13.5     0.00000279     -6906.5089513662 -4.42E-05
    56 OT SD       0.80E-01   13.2     0.00000336     -6906.5089707300 -1.94E-05
    57 OT SD       0.80E-01   13.6     0.00000525     -6906.5089715625 -8.33E-07
    58 OT DIIS     0.80E-01   13.4     0.00001792     -6906.5089610005  1.06E-05
    59 OT DIIS     0.80E-01   13.6     0.00000204     -6906.5089491188  1.19E-05
    60 OT DIIS     0.80E-01   13.5     0.00000193     -6906.5089590063 -9.89E-06
    61 OT DIIS     0.80E-01   13.3     0.00000192     -6906.5089638965 -4.89E-06
    62 OT SD       0.80E-01   13.5     0.00000196     -6906.5089708982 -7.00E-06
    63 OT DIIS     0.80E-01   13.5     0.00000371     -6906.5089721719 -1.27E-06
    64 OT DIIS     0.80E-01   13.5     0.00000190     -6906.5089790594 -6.89E-06
    65 OT DIIS     0.80E-01   14.1     0.00000189     -6906.5089903164 -1.13E-05
    66 OT DIIS     0.80E-01   14.0     0.00000209     -6906.5090031985 -1.29E-05
    67 OT SD       0.80E-01   13.6     0.00000265     -6906.5090594501 -5.63E-05
    68 OT SD       0.80E-01   14.0     0.00000473     -6906.5090601497 -7.00E-07
    69 OT DIIS     0.80E-01   14.1     0.00001914     -6906.5090478873  1.23E-05
    70 OT DIIS     0.80E-01   14.3     0.00000189     -6906.5090709090 -2.30E-05
    71 OT DIIS     0.80E-01   14.2     0.00000248     -6906.5091048900 -3.40E-05
    72 OT SD       0.80E-01   14.2     0.00000288     -6906.5091245795 -1.97E-05
    73 OT DIIS     0.80E-01   14.0     0.00000409     -6906.5091254466 -8.67E-07
    74 OT SD       0.80E-01   13.6     0.00000185     -6906.5091329225 -7.48E-06
    75 OT DIIS     0.80E-01   13.6     0.00000452     -6906.5091335708 -6.48E-07
    76 OT DIIS     0.80E-01   13.6     0.00000172     -6906.5091406393 -7.07E-06
    77 OT SD       0.80E-01   14.0     0.00000182     -6906.5091516560 -1.10E-05
    78 OT DIIS     0.80E-01   13.8     0.00000447     -6906.5091522710 -6.15E-07
    79 OT SD       0.80E-01   13.8     0.00000194     -6906.5091881379 -3.59E-05
    80 OT SD       0.80E-01   13.6     0.00000426     -6906.5091886669 -5.29E-07
    81 OT DIIS     0.80E-01   13.4     0.00001921     -6906.5091758516  1.28E-05
    82 OT DIIS     0.80E-01   13.5     0.00000249     -6906.5092335961 -5.77E-05
    83 OT DIIS     0.80E-01   13.6     0.00000268     -6906.5092421618 -8.57E-06
    84 OT SD       0.80E-01   13.6     0.00000244     -6906.5092424600 -2.98E-07
    85 OT SD       0.80E-01   13.5     0.00000461     -6906.5092427849 -3.25E-07
    86 OT DIIS     0.80E-01   13.8     0.00001864     -6906.5092306611  1.21E-05
    87 OT DIIS     0.80E-01   13.8     0.00000166     -6906.5092368707 -6.21E-06
    88 OT DIIS     0.80E-01   13.9     0.00000158     -6906.5092427143 -5.84E-06
    89 OT SD       0.80E-01   13.9     0.00000151     -6906.5092431733 -4.59E-07
    90 OT DIIS     0.80E-01   13.6     0.00000231     -6906.5092440956 -9.22E-07
    91 OT DIIS     0.80E-01   13.7     0.00000150     -6906.5092446804 -5.85E-07
    92 OT DIIS     0.80E-01   13.7     0.00000148     -6906.5092468171 -2.14E-06
    93 OT DIIS     0.80E-01   13.6     0.00000154     -6906.5092540316 -7.21E-06
    94 OT SD       0.80E-01   13.7     0.00000155     -6906.5092603274 -6.30E-06
    95 OT DIIS     0.80E-01   13.6     0.00000376     -6906.5092608204 -4.93E-07
    96 OT DIIS     0.80E-01   13.5     0.00000142     -6906.5092702028 -9.38E-06
    97 OT DIIS     0.80E-01   13.5     0.00000146     -6906.5092718434 -1.64E-06
    98 OT DIIS     0.80E-01   13.7     0.00000139     -6906.5092775720 -5.73E-06
    99 OT DIIS     0.80E-01   13.6     0.00000144     -6906.5092811002 -3.53E-06
   100 OT DIIS     0.80E-01   13.2     0.00000139     -6906.5092881711 -7.07E-06

  Leaving inner SCF loop after reaching   100 steps.


  Electronic density on regular grids:      -2431.9999999927        0.0000000073
  Core density on regular grids:             2431.9999999988       -0.0000000012
  Total charge density on r-space grids:        0.0000000061
  Total charge density g-space grids:           0.0000000061

  Overlap energy of the core charge distribution:               0.05940236042155
  Self energy of the core charge distribution:             -16017.19408509233290
  Core Hamiltonian energy:                                   4291.86408963167196
  Hartree energy:                                            6144.56250975999137
  Exchange-correlation energy:                              -1324.01451257570648
  Dispersion energy:                                           -1.78669225511608

  Total energy:                                             -6906.50928817107069

  outer SCF iter =    3 RMS gradient =   0.14E-05 energy =      -6906.5092881711

  ----------------------------------- OT ---------------------------------------
  Minimizer      : DIIS                : direct inversion
                                         in the iterative subspace
                                         using   7 DIIS vectors
                                         safer DIIS on
  Preconditioner : FULL_SINGLE_INVERSE : inversion of 
                                         H + eS - 2*(Sc)(c^T*H*c+const)(Sc)^T
  Precond_solver : DEFAULT
  stepsize       :    0.08000000                  energy_gap     :    0.08000000
  eps_taylor     :   0.10000E-15                  max_taylor     :             4
  ----------------------------------- OT ---------------------------------------

  Step     Update method      Time    Convergence         Total energy    Change
  ------------------------------------------------------------------------------
     1 OT DIIS     0.80E-01   33.9     0.00000140     -6906.5092952862 -7.12E-06
     2 OT DIIS     0.80E-01   12.5     0.00000230     -6906.5092960364 -7.50E-07
     3 OT DIIS     0.80E-01   12.6     0.00000139     -6906.5092963131 -2.77E-07
     4 OT DIIS     0.80E-01   12.6     0.00000134     -6906.5092966280 -3.15E-07
     5 OT DIIS     0.80E-01   12.4     0.00000136     -6906.5092975572 -9.29E-07
     6 OT DIIS     0.80E-01   12.6     0.00000135     -6906.5092998728 -2.32E-06
     7 OT DIIS     0.80E-01   12.5     0.00000134     -6906.5093024509 -2.58E-06
     8 OT DIIS     0.80E-01   12.5     0.00000132     -6906.5093044461 -2.00E-06
     9 OT DIIS     0.80E-01   12.4     0.00000132     -6906.5093060581 -1.61E-06
    10 OT DIIS     0.80E-01   12.5     0.00000131     -6906.5093074184 -1.36E-06
    11 OT DIIS     0.80E-01   12.6     0.00000131     -6906.5093090728 -1.65E-06
    12 OT DIIS     0.80E-01   12.9     0.00000132     -6906.5093121983 -3.13E-06
    13 OT DIIS     0.80E-01   13.2     0.00000131     -6906.5093161435 -3.95E-06
    14 OT DIIS     0.80E-01   13.5     0.00000130     -6906.5093204948 -4.35E-06
    15 OT DIIS     0.80E-01   12.8     0.00000130     -6906.5093246962 -4.20E-06
    16 OT DIIS     0.80E-01   13.6     0.00000131     -6906.5093281835 -3.49E-06
    17 OT DIIS     0.80E-01   13.1     0.00000130     -6906.5093321594 -3.98E-06
    18 OT DIIS     0.80E-01   12.5     0.00000130     -6906.5093386076 -6.45E-06
    19 OT DIIS     0.80E-01   12.4     0.00000128     -6906.5093453329 -6.73E-06
    20 OT DIIS     0.80E-01   12.5     0.00000126     -6906.5093499760 -4.64E-06
    21 OT DIIS     0.80E-01   12.4     0.00000128     -6906.5093585551 -8.58E-06
    22 OT DIIS     0.80E-01   12.4     0.00000131     -6906.5093672952 -8.74E-06
    23 OT DIIS     0.80E-01   12.5     0.00000129     -6906.5093749063 -7.61E-06
    24 OT DIIS     0.80E-01   12.5     0.00000127     -6906.5093775486 -2.64E-06
    25 OT DIIS     0.80E-01   12.5     0.00000127     -6906.5093823705 -4.82E-06
    26 OT DIIS     0.80E-01   12.3     0.00000143     -6906.5093992458 -1.69E-05
    27 OT DIIS     0.80E-01   12.5     0.00000129     -6906.5094102122 -1.10E-05
    28 OT DIIS     0.80E-01   12.5     0.00000165     -6906.5094193233 -9.11E-06
    29 OT DIIS     0.80E-01   12.5     0.00000181     -6906.5094307859 -1.15E-05
    30 OT SD       0.80E-01   12.6     0.00000150     -6906.5094326406 -1.85E-06
    31 OT DIIS     0.80E-01   12.6     0.00000427     -6906.5094326609 -2.02E-08
    32 OT DIIS     0.80E-01   12.4     0.00000138     -6906.5094461166 -1.35E-05
    33 OT DIIS     0.80E-01   12.3     0.00000155     -6906.5094551253 -9.01E-06
    34 OT DIIS     0.80E-01   12.5     0.00000125     -6906.5094579614 -2.84E-06
    35 OT DIIS     0.80E-01   12.6     0.00000124     -6906.5094649786 -7.02E-06
    36 OT SD       0.80E-01   12.5     0.00000124     -6906.5094671633 -2.18E-06
    37 OT DIIS     0.80E-01   12.4     0.00000250     -6906.5094676168 -4.53E-07
    38 OT DIIS     0.80E-01   12.6     0.00000116     -6906.5094708450 -3.23E-06
    39 OT DIIS     0.80E-01   12.4     0.00000116     -6906.5094732900 -2.45E-06
    40 OT DIIS     0.80E-01   12.5     0.00000120     -6906.5094769932 -3.70E-06
    41 OT SD       0.80E-01   12.3     0.00000120     -6906.5094839304 -6.94E-06
    42 OT DIIS     0.80E-01   12.5     0.00000235     -6906.5094843752 -4.45E-07
    43 OT SD       0.80E-01   12.3     0.00000115     -6906.5094933144 -8.94E-06
    44 OT DIIS     0.80E-01   12.4     0.00000137     -6906.5094938817 -5.67E-07
    45 OT DIIS     0.80E-01   12.6     0.00000121     -6906.5095021432 -8.26E-06
    46 OT DIIS     0.80E-01   12.5     0.00000117     -6906.5095101219 -7.98E-06
    47 OT SD       0.80E-01   12.6     0.00000116     -6906.5095128795 -2.76E-06
    48 OT DIIS     0.80E-01   12.9     0.00000189     -6906.5095133678 -4.88E-07
    49 OT DIIS     0.80E-01   13.2     0.00000120     -6906.5095269344 -1.36E-05
    50 OT SD       0.80E-01   13.1     0.00000120     -6906.5095296627 -2.73E-06
    51 OT DIIS     0.80E-01   12.9     0.00000208     -6906.5095301035 -4.41E-07
    52 OT DIIS     0.80E-01   12.7     0.00000117     -6906.5095339448 -3.84E-06
    53 OT SD       0.80E-01   12.8     0.00000129     -6906.5095476588 -1.37E-05
    54 OT SD       0.80E-01   12.8     0.00000201     -6906.5095481014 -4.43E-07
    55 OT DIIS     0.80E-01   12.9     0.00000765     -6906.5095465099  1.59E-06
    56 OT DIIS     0.80E-01   12.7     0.00000111     -6906.5095483990 -1.89E-06
    57 OT SD       0.80E-01   12.9     0.00000114     -6906.5095548794 -6.48E-06
    58 OT DIIS     0.80E-01   12.9     0.00000207     -6906.5095553076 -4.28E-07
    59 OT DIIS     0.80E-01   12.8     0.00000112     -6906.5095604749 -5.17E-06
    60 OT SD       0.80E-01   12.8     0.00000114     -6906.5095715687 -1.11E-05
    61 OT SD       0.80E-01   12.8     0.00000172     -6906.5095720254 -4.57E-07
    62 OT DIIS     0.80E-01   12.8     0.00000645     -6906.5095709969  1.03E-06
    63 OT SD       0.80E-01   12.9     0.00000138     -6906.5095938730 -2.29E-05
    64 OT SD       0.80E-01   12.7     0.00000231     -6906.5095942137 -3.41E-07
    65 OT DIIS     0.80E-01   12.6     0.00000898     -6906.5095917687  2.45E-06
    66 OT DIIS     0.80E-01   12.8     0.00000108     -6906.5095945248 -2.76E-06
    67 OT SD       0.80E-01   12.7     0.00000115     -6906.5096040782 -9.55E-06
    68 OT DIIS     0.80E-01   12.9     0.00000221     -6906.5096044452 -3.67E-07
    69 OT DIIS     0.80E-01   13.0     0.00000108     -6906.5096118812 -7.44E-06
    70 OT SD       0.80E-01   13.4     0.00000124     -6906.5096240548 -1.22E-05
    71 OT SD       0.80E-01   12.9     0.00000202     -6906.5096244367 -3.82E-07
    72 OT DIIS     0.80E-01   13.1     0.00000833     -6906.5096224363  2.00E-06
    73 OT DIIS     0.80E-01   13.0     0.00000110     -6906.5096316388 -9.20E-06
    74 OT SD       0.80E-01   12.9     0.00000116     -6906.5096349850 -3.35E-06
    75 OT DIIS     0.80E-01   13.1     0.00000243     -6906.5096352829 -2.98E-07
    76 OT DIIS     0.80E-01   12.9     0.00000103     -6906.5096365730 -1.29E-06
    77 OT SD       0.80E-01   13.2     0.00000203     -6906.5096650442 -2.85E-05
    78 OT SD       0.80E-01   13.5     0.00000311     -6906.5096651441 -1.00E-07
    79 OT SD       0.80E-01   13.2     0.00000708     -6906.5096631398  2.00E-06
    80 OT DIIS     0.80E-01   13.1     0.00002456     -6906.5096376044  2.55E-05
    81 OT SD       0.80E-01   13.3     0.00000107     -6906.5096576081 -2.00E-05
    82 OT DIIS     0.80E-01   13.1     0.00000206     -6906.5096579407 -3.33E-07
    83 OT SD       0.80E-01   13.5     0.00000108     -6906.5096651811 -7.24E-06
    84 OT SD       0.80E-01   13.0     0.00000197     -6906.5096655272 -3.46E-07
    85 OT DIIS     0.80E-01   12.9     0.00000913     -6906.5096630416  2.49E-06
    86 OT DIIS     0.80E-01   12.8     0.00000098     -6906.5096653854 -2.34E-06

  *** SCF run converged in    86 steps ***


  Electronic density on regular grids:      -2431.9999999928        0.0000000072
  Core density on regular grids:             2431.9999999988       -0.0000000012
  Total charge density on r-space grids:        0.0000000061
  Total charge density g-space grids:           0.0000000061

  Overlap energy of the core charge distribution:               0.05940236042155
  Self energy of the core charge distribution:             -16017.19408509233290
  Core Hamiltonian energy:                                   4291.85964249638073
  Hartree energy:                                            6144.56395359160433
[...]
    94 OT DIIS     0.80E-01   12.3     0.00004503     -6917.1181772259  7.46E-05
    95 OT SD       0.80E-01   12.6     0.00000192     -6917.1182214364 -4.42E-05
    96 OT SD       0.80E-01   12.3     0.00000230     -6917.1182230511 -1.61E-06
    97 OT DIIS     0.80E-01   12.5     0.00000677     -6917.1182230927 -4.16E-08
    98 OT SD       0.80E-01   12.1     0.00000186     -6917.1182468996 -2.38E-05
    99 OT SD       0.80E-01   12.3     0.00000201     -6917.1182485490 -1.65E-06
   100 OT SD       0.80E-01   12.3     0.00000439     -6917.1182496320 -1.08E-06

  Leaving inner SCF loop after reaching   100 steps.


  Electronic density on regular grids:      -2431.9999999928        0.0000000072
  Core density on regular grids:             2431.9999999988       -0.0000000012
  Total charge density on r-space grids:        0.0000000061
  Total charge density g-space grids:           0.0000000061

  Overlap energy of the core charge distribution:               0.00035185474507
  Self energy of the core charge distribution:             -16017.19408509233290
  Core Hamiltonian energy:                                   4277.64499428823365
  Hartree energy:                                            6145.75456825666879
  Exchange-correlation energy:                              -1321.51358132599444
  Dispersion energy:                                           -1.81049761327490

  Total energy:                                             -6917.11824963195431

  outer SCF iter =   24 RMS gradient =   0.44E-05 energy =      -6917.1182496320

  ----------------------------------- OT ---------------------------------------
  Minimizer      : DIIS                : direct inversion
                                         in the iterative subspace
                                         using   7 DIIS vectors
                                         safer DIIS on
  Preconditioner : FULL_SINGLE_INVERSE : inversion of 
                                         H + eS - 2*(Sc)(c^T*H*c+const)(Sc)^T
  Precond_solver : DEFAULT
  stepsize       :    0.08000000                  energy_gap     :    0.08000000
  eps_taylor     :   0.10000E-15                  max_taylor     :             4
  ----------------------------------- OT ---------------------------------------

  Step     Update method      Time    Convergence         Total energy    Change
  ------------------------------------------------------------------------------
     1 OT DIIS     0.80E-01   32.6     0.00002114     -6917.1182349204  1.47E-05
     2 OT DIIS     0.80E-01   12.3     0.00011290     -6917.1177689944  4.66E-04
     3 OT DIIS     0.80E-01   12.2     0.00000473     -6917.1182529788 -4.84E-04
     4 OT DIIS     0.80E-01   12.4     0.00000193     -6917.1182541665 -1.19E-06
     5 OT DIIS     0.80E-01   12.3     0.00000186     -6917.1182545775 -4.11E-07
     6 OT SD       0.80E-01   12.3     0.00000186     -6917.1182548008 -2.23E-07
     7 OT SD       0.80E-01   12.4     0.00000187     -6917.1182564758 -1.67E-06
     8 OT SD       0.80E-01   12.5     0.00000199     -6917.1182581324 -1.66E-06
     9 OT SD       0.80E-01   12.3     0.00000403     -6917.1182593169 -1.18E-06
    10 OT SD       0.80E-01   12.3     0.00001822     -6917.1182484504  1.09E-05
    11 OT DIIS     0.80E-01   12.5     0.00009295     -6917.1179225507  3.26E-04
    12 OT DIIS     0.80E-01   12.3     0.00000256     -6917.1181856351 -2.63E-04
    13 OT DIIS     0.80E-01   12.4     0.00000244     -6917.1181918533 -6.22E-06
    14 OT DIIS     0.80E-01   12.4     0.00000204     -6917.1182177113 -2.59E-05
    15 OT SD       0.80E-01   12.2     0.00000197     -6917.1182550412 -3.73E-05
    16 OT SD       0.80E-01   12.4     0.00000328     -6917.1182564270 -1.39E-06
    17 OT SD       0.80E-01   12.4     0.00001322     -6917.1182514494  4.98E-06
    18 OT DIIS     0.80E-01   12.3     0.00006630     -6917.1180858910  1.66E-04
    19 OT DIIS     0.80E-01   12.5     0.00000233     -6917.1182307244 -1.45E-04
    20 OT SD       0.80E-01   12.4     0.00000195     -6917.1182677044 -3.70E-05
    21 OT SD       0.80E-01   12.4     0.00000281     -6917.1182692257 -1.52E-06
    22 OT SD       0.80E-01   12.3     0.00001060     -6917.1182667799  2.45E-06
    23 OT DIIS     0.80E-01   12.4     0.00005445     -6917.1181580460  1.09E-04
    24 OT DIIS     0.80E-01   12.5     0.00000188     -6917.1182725557 -1.15E-04
    25 OT DIIS     0.80E-01   12.5     0.00000187     -6917.1182734712 -9.16E-07
    26 OT SD       0.80E-01   13.1     0.00000187     -6917.1182741126 -6.41E-07
    27 OT SD       0.80E-01   12.8     0.00000192     -6917.1182757990 -1.69E-06
    28 OT SD       0.80E-01   12.4     0.00000277     -6917.1182773296 -1.53E-06
    29 OT SD       0.80E-01   12.3     0.00001018     -6917.1182751472  2.18E-06
    30 OT DIIS     0.80E-01   12.4     0.00005087     -6917.1181785809  9.66E-05
    31 OT SD       0.80E-01   12.4     0.00000192     -6917.1182522931 -7.37E-05
    32 OT SD       0.80E-01   12.4     0.00000276     -6917.1182538025 -1.51E-06
    33 OT SD       0.80E-01   12.4     0.00000986     -6917.1182517548  2.05E-06
    34 OT DIIS     0.80E-01   12.5     0.00004755     -6917.1181652544  8.65E-05
    35 OT DIIS     0.80E-01   12.2     0.00000269     -6917.1181936444 -2.84E-05
    36 OT DIIS     0.80E-01   12.4     0.00000189     -6917.1182604307 -6.68E-05
    37 OT DIIS     0.80E-01   12.6     0.00000224     -6917.1182881515 -2.77E-05
    38 OT SD       0.80E-01   12.6     0.00000276     -6917.1183113492 -2.32E-05
    39 OT SD       0.80E-01   12.5     0.00000499     -6917.1183126253 -1.28E-06
    40 OT DIIS     0.80E-01   12.5     0.00002229     -6917.1182959053  1.67E-05
    41 OT DIIS     0.80E-01   12.4     0.00000261     -6917.1183158684 -2.00E-05
    42 OT SD       0.80E-01   12.4     0.00000551     -6917.1183736403 -5.78E-05
    43 OT SD       0.80E-01   12.4     0.00000633     -6917.1183765551 -2.91E-06
    44 OT SD       0.80E-01   12.6     0.00001319     -6917.1183702831  6.27E-06
    45 OT DIIS     0.80E-01   12.3     0.00004372     -6917.1182895852  8.07E-05
    46 OT DIIS     0.80E-01   12.4     0.00000296     -6917.1182661910  2.34E-05
    47 OT SD       0.80E-01   12.5     0.00000282     -6917.1183399621 -7.38E-05
    48 OT SD       0.80E-01   12.4     0.00000906     -6917.1183385897  1.37E-06
    49 OT DIIS     0.80E-01   12.4     0.00004177     -6917.1182709144  6.77E-05
    50 OT SD       0.80E-01   12.5     0.00000200     -6917.1183299937 -5.91E-05
    51 OT SD       0.80E-01   12.4     0.00000320     -6917.1183315330 -1.54E-06
    52 OT DIIS     0.80E-01   12.5     0.00001280     -6917.1183271777  4.36E-06
    53 OT SD       0.80E-01   12.3     0.00000193     -6917.1183301919 -3.01E-06
    54 OT SD       0.80E-01   12.3     0.00000199     -6917.1183319776 -1.79E-06
    55 OT SD       0.80E-01   12.3     0.00000300     -6917.1183335725 -1.59E-06
    56 OT DIIS     0.80E-01   12.4     0.00001179     -6917.1183302854  3.29E-06
    57 OT SD       0.80E-01   12.5     0.00000194     -6917.1183271981  3.09E-06
    58 OT SD       0.80E-01   12.5     0.00000229     -6917.1183289226 -1.72E-06
    59 OT SD       0.80E-01   12.5     0.00000615     -6917.1183293568 -4.34E-07
    60 OT DIIS     0.80E-01   12.4     0.00002895     -6917.1182990017  3.04E-05
    61 OT DIIS     0.80E-01   12.4     0.00000198     -6917.1183008130 -1.81E-06
    62 OT SD       0.80E-01   12.5     0.00000195     -6917.1183143558 -1.35E-05
    63 OT SD       0.80E-01   12.2     0.00000257     -6917.1183160025 -1.65E-06
    64 OT SD       0.80E-01   12.5     0.00000846     -6917.1183150843  9.18E-07
    65 OT DIIS     0.80E-01   12.4     0.00004070     -6917.1182525468  6.25E-05
    66 OT DIIS     0.80E-01   12.4     0.00000192     -6917.1183158038 -6.33E-05
    67 OT SD       0.80E-01   12.5     0.00000191     -6917.1183165798 -7.76E-07
    68 OT SD       0.80E-01   12.4     0.00000195     -6917.1183183416 -1.76E-06
    69 OT SD       0.80E-01   12.4     0.00000262     -6917.1183199845 -1.64E-06
    70 OT SD       0.80E-01   12.4     0.00000912     -6917.1183186818  1.30E-06
    71 OT DIIS     0.80E-01   12.5     0.00004531     -6917.1182423258  7.64E-05
    72 OT SD       0.80E-01   12.5     0.00000191     -6917.1182999905 -5.77E-05
    73 OT SD       0.80E-01   12.6     0.00000202     -6917.1183017263 -1.74E-06
    74 OT SD       0.80E-01   12.3     0.00000365     -6917.1183030871 -1.36E-06
    75 OT SD       0.80E-01   12.3     0.00001544     -6917.1182957357  7.35E-06
    76 OT DIIS     0.80E-01   12.4     0.00007775     -6917.1180674095  2.28E-04
    77 OT DIIS     0.80E-01   12.3     0.00000191     -6917.1183047886 -2.37E-04
    78 OT DIIS     0.80E-01   12.3     0.00000190     -6917.1183064439 -1.66E-06
    79 OT SD       0.80E-01   12.5     0.00000190     -6917.1183069138 -4.70E-07
    80 OT SD       0.80E-01   12.4     0.00000197     -6917.1183086512 -1.74E-06
    81 OT SD       0.80E-01   12.6     0.00000333     -6917.1183101223 -1.47E-06
    82 OT SD       0.80E-01   12.4     0.00001461     -6917.1183041024  6.02E-06
    83 OT DIIS     0.80E-01   12.4     0.00007725     -6917.1180859670  2.18E-04
    84 OT SD       0.80E-01   12.5     0.00000192     -6917.1182876836 -2.02E-04
    85 OT SD       0.80E-01   12.4     0.00000219     -6917.1182893712 -1.69E-06
    86 OT SD       0.80E-01   12.6     0.00000562     -6917.1182900011 -6.30E-07
    87 OT DIIS     0.80E-01   12.3     0.00002661     -6917.1182647619  2.52E-05
    88 OT DIIS     0.80E-01   12.6     0.00000193     -6917.1182724584 -7.70E-06
    89 OT SD       0.80E-01   12.4     0.00000190     -6917.1182837842 -1.13E-05
    90 OT SD       0.80E-01   12.5     0.00000227     -6917.1182854262 -1.64E-06
    91 OT SD       0.80E-01   12.6     0.00000601     -6917.1182857878 -3.62E-07
    92 OT DIIS     0.80E-01   12.3     0.00002650     -6917.1182590699  2.67E-05
    93 OT SD       0.80E-01   12.6     0.00000188     -6917.1182872136 -2.81E-05
    94 OT SD       0.80E-01   12.4     0.00000192     -6917.1182889183 -1.70E-06
    95 OT SD       0.80E-01   12.5     0.00000271     -6917.1182904815 -1.56E-06
    96 OT SD       0.80E-01   12.6     0.00001005     -6917.1182885049  1.98E-06
    97 OT DIIS     0.80E-01   12.4     0.00005185     -6917.1181906434  9.79E-05
    98 OT SD       0.80E-01   12.4     0.00000189     -6917.1182709853 -8.03E-05
    99 OT SD       0.80E-01   12.4     0.00000203     -6917.1182726662 -1.68E-06
   100 OT SD       0.80E-01   12.4     0.00000394     -6917.1182738760 -1.21E-06

  Leaving inner SCF loop after reaching   100 steps.


  Electronic density on regular grids:      -2431.9999999928        0.0000000072
  Core density on regular grids:             2431.9999999988       -0.0000000012
  Total charge density on r-space grids:        0.0000000061
  Total charge density g-space grids:           0.0000000061

  Overlap energy of the core charge distribution:               0.00035185474507
  Self energy of the core charge distribution:             -16017.19408509233290
  Core Hamiltonian energy:                                   4277.64547115425648
  Hartree energy:                                            6145.75412213154323
  Exchange-correlation energy:                              -1321.51363631090908
  Dispersion energy:                                           -1.81049761327490

  Total energy:                                             -6917.11827387597259

  outer SCF iter =   25 RMS gradient =   0.39E-05 energy =      -6917.1182738760

  ----------------------------------- OT ---------------------------------------
  Minimizer      : DIIS                : direct inversion
                                         in the iterative subspace
                                         using   7 DIIS vectors
                                         safer DIIS on
  Preconditioner : FULL_SINGLE_INVERSE : inversion of 
                                         H + eS - 2*(Sc)(c^T*H*c+const)(Sc)^T
  Precond_solver : DEFAULT
  stepsize       :    0.08000000                  energy_gap     :    0.08000000
  eps_taylor     :   0.10000E-15                  max_taylor     :             4
  ----------------------------------- OT ---------------------------------------

  Step     Update method      Time    Convergence         Total energy    Change
  ------------------------------------------------------------------------------
     1 OT DIIS     0.80E-01   33.2     0.00001657     -6917.1182648064  9.07E-06
     2 OT DIIS     0.80E-01   12.1     0.00008084     -6917.1180118283  2.53E-04
     3 OT DIIS     0.80E-01   12.4     0.00000643     -6917.1182762802 -2.64E-04
     4 OT DIIS     0.80E-01   12.3     0.00000203     -6917.1182783985 -2.12E-06
     5 OT DIIS     0.80E-01   12.3     0.00000188     -6917.1182787722 -3.74E-07
     6 OT DIIS     0.80E-01   12.3     0.00000187     -6917.1182791641 -3.92E-07
     7 OT SD       0.80E-01   12.3     0.00000187     -6917.1182792462 -8.21E-08
     8 OT SD       0.80E-01   12.4     0.00000188     -6917.1182809462 -1.70E-06
     9 OT SD       0.80E-01   12.5     0.00000192     -6917.1182826411 -1.69E-06
    10 OT SD       0.80E-01   12.2     0.00000275     -6917.1182841872 -1.55E-06
    11 OT SD       0.80E-01   12.3     0.00001048     -6917.1182818623  2.32E-06
    12 OT DIIS     0.80E-01   12.5     0.00005365     -6917.1181757700  1.06E-04
    13 OT SD       0.80E-01   12.5     0.00000189     -6917.1182635542 -8.78E-05
    14 OT SD       0.80E-01   12.3     0.00000208     -6917.1182652160 -1.66E-06
    15 OT SD       0.80E-01   12.4     0.00000472     -6917.1182661716 -9.56E-07
    16 OT DIIS     0.80E-01   12.4     0.00002184     -6917.1182497857  1.64E-05
    17 OT DIIS     0.80E-01   12.4     0.00000188     -6917.1182533599 -3.57E-06
    18 OT SD       0.80E-01   12.4     0.00000188     -6917.1182617063 -8.35E-06
    19 OT SD       0.80E-01   12.5     0.00000208     -6917.1182633552 -1.65E-06
    20 OT SD       0.80E-01   12.3     0.00000485     -6917.1182642548 -9.00E-07
    21 OT DIIS     0.80E-01   12.4     0.00002256     -6917.1182465100  1.77E-05
    22 OT DIIS     0.80E-01   12.4     0.00000186     -6917.1182665631 -2.01E-05
    23 OT DIIS     0.80E-01   12.5     0.00000187     -6917.1182676896 -1.13E-06
    24 OT SD       0.80E-01   12.3     0.00000186     -6917.1182686260 -9.36E-07
    25 OT SD       0.80E-01   12.2     0.00000187     -6917.1182703086 -1.68E-06
    26 OT SD       0.80E-01   12.4     0.00000196     -6917.1182719775 -1.67E-06
    27 OT SD       0.80E-01   12.4     0.00000335     -6917.1182733485 -1.37E-06
    28 OT SD       0.80E-01   12.3     0.00001342     -6917.1182680488  5.30E-06
    29 OT DIIS     0.80E-01   12.5     0.00006594     -6917.1181017386  1.66E-04
    30 OT DIIS     0.80E-01   12.6     0.00000189     -6917.1182446733 -1.43E-04
    31 OT DIIS     0.80E-01   12.4     0.00000190     -6917.1182462379 -1.56E-06
    32 OT DIIS     0.80E-01   12.5     0.00000188     -6917.1182470363 -7.98E-07
    33 OT SD       0.80E-01   12.4     0.00000188     -6917.1182641762 -1.71E-05
    34 OT SD       0.80E-01   12.2     0.00000221     -6917.1182657965 -1.62E-06
    35 OT DIIS     0.80E-01   12.2     0.00000607     -6917.1182661723 -3.76E-07
    36 OT SD       0.80E-01   12.2     0.00000187     -6917.1182650545  1.12E-06
    37 OT SD       0.80E-01   12.5     0.00000204     -6917.1182667043 -1.65E-06
    38 OT SD       0.80E-01   12.3     0.00000444     -6917.1182677419 -1.04E-06
    39 OT DIIS     0.80E-01   12.2     0.00002007     -6917.1182539410  1.38E-05
    40 OT SD       0.80E-01   12.3     0.00000187     -6917.1182647944 -1.09E-05
    41 OT SD       0.80E-01   12.3     0.00000197     -6917.1182664552 -1.66E-06
    42 OT SD       0.80E-01   12.3     0.00000365     -6917.1182677498 -1.29E-06
    43 OT SD       0.80E-01   12.4     0.00001595     -6917.1182598481  7.90E-06
    44 OT DIIS     0.80E-01   12.5     0.00008165     -6917.1180103407  2.50E-04
    45 OT SD       0.80E-01   12.4     0.00000188     -6917.1182438490 -2.34E-04
    46 OT DIIS     0.80E-01   12.5     0.00000207     -6917.1182454937 -1.64E-06
    47 OT DIIS     0.80E-01   12.4     0.00000188     -6917.1182467852 -1.29E-06
    48 OT SD       0.80E-01   12.6     0.00000186     -6917.1182615570 -1.48E-05
    49 OT SD       0.80E-01   12.4     0.00000195     -6917.1182632196 -1.66E-06
    50 OT SD       0.80E-01   12.3     0.00000350     -6917.1182645644 -1.34E-06
    51 OT DIIS     0.80E-01   12.3     0.00001557     -6917.1182572908  7.27E-06
    52 OT SD       0.80E-01   12.4     0.00000186     -6917.1182561289  1.16E-06
    53 OT SD       0.80E-01   12.5     0.00000188     -6917.1182577975 -1.67E-06
    54 OT SD       0.80E-01   12.4     0.00000237     -6917.1182593860 -1.59E-06
    55 OT SD       0.80E-01   12.4     0.00000755     -6917.1182589955  3.91E-07
    56 OT DIIS     0.80E-01   12.4     0.00003724     -6917.1182079610  5.10E-05
    57 OT DIIS     0.80E-01   12.5     0.00000186     -6917.1182550789 -4.71E-05
    58 OT SD       0.80E-01   12.5     0.00000186     -6917.1182562520 -1.17E-06
    59 OT SD       0.80E-01   12.5     0.00000187     -6917.1182579211 -1.67E-06
    60 OT SD       0.80E-01   12.4     0.00000214     -6917.1182595452 -1.62E-06
    61 OT SD       0.80E-01   12.6     0.00000530     -6917.1182602290 -6.84E-07
    62 OT DIIS     0.80E-01   12.4     0.00002423     -6917.1182390940  2.11E-05
    63 OT SD       0.80E-01   12.5     0.00000186     -6917.1182542564 -1.52E-05
    64 OT SD       0.80E-01   12.4     0.00000188     -6917.1182559240 -1.67E-06
    65 OT SD       0.80E-01   12.4     0.00000239     -6917.1182575083 -1.58E-06
    66 OT SD       0.80E-01   12.4     0.00000784     -6917.1182569654  5.43E-07
    67 OT DIIS     0.80E-01   12.4     0.00003913     -6917.1182007249  5.62E-05
    68 OT SD       0.80E-01   12.4     0.00000186     -6917.1182565324 -5.58E-05
    69 OT SD       0.80E-01   12.3     0.00000186     -6917.1182582033 -1.67E-06
    70 OT SD       0.80E-01   12.5     0.00000189     -6917.1182598690 -1.67E-06
    71 OT SD       0.80E-01   12.4     0.00000252     -6917.1182614227 -1.55E-06
    72 OT SD       0.80E-01   12.7     0.00000844     -6917.1182604327  9.90E-07
    73 OT DIIS     0.80E-01   12.3     0.00004110     -6917.1181972317  6.32E-05
    74 OT SD       0.80E-01   12.3     0.00000187     -6917.1182471599 -4.99E-05
    75 OT SD       0.80E-01   12.4     0.00000210     -6917.1182487910 -1.63E-06
    76 OT SD       0.80E-01   12.6     0.00000526     -6917.1182495319 -7.41E-07
    77 OT DIIS     0.80E-01   12.4     0.00002553     -6917.1182268367  2.27E-05
    78 OT DIIS     0.80E-01   12.4     0.00000186     -6917.1182370698 -1.02E-05
    79 OT SD       0.80E-01   12.4     0.00000186     -6917.1182462442 -9.17E-06
    80 OT SD       0.80E-01   12.4     0.00000194     -6917.1182478948 -1.65E-06
    81 OT SD       0.80E-01   12.5     0.00000340     -6917.1182492453 -1.35E-06
    82 OT DIIS     0.80E-01   12.5     0.00001461     -6917.1182429228  6.32E-06
    83 OT DIIS     0.80E-01   12.3     0.00000185     -6917.1182511125 -8.19E-06
    84 OT SD       0.80E-01   12.4     0.00000185     -6917.1182526726 -1.56E-06
    85 OT SD       0.80E-01   12.5     0.00000186     -6917.1182543359 -1.66E-06
    86 OT SD       0.80E-01   12.4     0.00000204     -6917.1182559722 -1.64E-06
    87 OT SD       0.80E-01   12.4     0.00000451     -6917.1182569721 -1.00E-06
    88 OT DIIS     0.80E-01   12.4     0.00002054     -6917.1182424604  1.45E-05
    89 OT DIIS     0.80E-01   12.5     0.00000186     -6917.1182343864  8.07E-06
    90 OT DIIS     0.80E-01   12.5     0.00000187     -6917.1182357504 -1.36E-06
    91 OT DIIS     0.80E-01   12.5     0.00000191     -6917.1182369699 -1.22E-06
    92 OT SD       0.80E-01   12.4     0.00000185     -6917.1182429979 -6.03E-06
    93 OT DIIS     0.80E-01   12.4     0.00000192     -6917.1182446493 -1.65E-06
