     387
 i =        1, E =     -6906.5096727445
  O        16.2491340087       10.0283354980        0.8007807497
  O        11.1619624112        6.7501361382        4.0833191673
  O        27.6845838493        8.3831030218        2.4222971486
  O        22.6076412337        5.1097676754        5.7044860056
  O         2.8235809771        5.0141581210        3.8468072038
  O        19.3434592243        6.6416458742        2.2077089981
  O        14.2424261522        3.3742228663        5.4883332633
  O        25.7149133724        1.7610563010        7.1257968024
  O         7.1685363718       12.1593239848        3.2893459247
  O         2.1048637221        8.8961839537        6.5503360498
  O        21.7803770836        2.2825735541        1.6424241851
  O        18.5983974069       10.5264668411        4.9210507342
  O        17.3520924078        2.6152344316        2.3092079347
  O        14.1622110039       10.8563169064        5.5857904361
  O         2.7346871212       12.4891272475        3.9396390781
  O        25.5987296233        9.2084341370        7.2184900781
  O        14.2459653497        5.9849291240        0.8991032352
  O         9.1730299646        2.7170799679        4.1630651547
  O        25.7081433651        4.3516366539        2.5176956624
  O        20.6065645644        1.0869941465        5.7993780925
  O        11.8034362825       10.3562252566        1.4640789531
  O         6.7305532771        7.0823716598        4.7360466962
  O        23.2619148164        8.7205358013        3.0853253242
  O        18.1578107391        5.4359248828        6.3739805488
  O        15.4968291795        1.4333867284        3.5048672204
  O        12.3228860942        9.6727054818        6.7804559027
  O        28.8499111922       11.3059662049        5.1270864423
  O        23.7598701448        8.0253808083        8.4104986183
  O        12.3910526793        4.7851172275        2.0852786385
  O         7.3348733859        1.5311130190        5.3644396649
  O        23.8669824394        3.1628684841        3.7220288660
  O        22.5634575731       22.9250372990        6.9991974331
  O         9.9591346594        9.1549719035        2.6595782081
  O         4.8932995751        5.8972478574        5.9208523964
  O        21.4057041529        7.5331674251        4.2890443234
  O        16.3241569069        4.2549227544        7.5668887009
  O        14.4075728301        8.8451599099        1.9942260519
  O         9.3232228095        5.5646492890        5.2725120978
  O        25.8482547140        7.1991202763        3.6159153156
  O        20.7550112869        3.9266870330        6.9010591911
  O         0.9845171261        3.8291801022        5.0428950606
  O        17.5005042880        5.4547271416        3.4097666697
  O        12.4059610714        2.1909656409        6.6931559405
  O        23.8583158716        0.5605663673        8.3098058207
  O         5.3314231426       10.9714358341        4.4708838462
  O        28.2081950166        7.6922685114        7.7435123283
  O        19.9486593105        1.1053740735        2.8329700595
  O        16.7482546476        9.3429301766        6.1248965030
  O        14.5039584093       11.4051844998        2.0743570869
  O         9.4222034867        8.1182927951        5.3548681687
  O        25.9475206358        9.7531524892        3.6944798539
  O        20.8698471080        6.4716238571        6.9878579633
  O        16.2304640473        9.9504861496        3.3019546780
  O        11.1507000119        6.6655069661        6.5818733329
  O        27.6648114051        8.3080029568        4.9202279362
  O        22.5903332660        5.0375337470        8.2093330247
  P        15.3315078117       10.0639961473        1.9971460883
  P        10.2659030749        6.8108483322        5.3191966301
  P        26.7682926934        8.4453489872        3.6809523757
  P        21.6831805373        5.1913122494        6.9929985649
 Ca        10.4874198406        4.4716259811        3.3288593148
 Ca         5.4019500195        1.1844851266        6.6201782534
 Ca        26.9873279364        6.0958154711        1.7058295504
 Ca        21.9280194090        2.8086757501        4.9966622598
  O         1.2235081891        3.5319847842        2.5125965517
  O        17.7528545337        5.1721346564        0.8823203014
  O        12.6509584268        1.9036990552        4.1598334111
  O        24.1031201390        0.2603624340        5.7865166236
  O        28.4096828829        5.7522982446        3.5278283036
  O        16.9774748451        7.3851331707        1.8973912249
  O        11.8854828418        4.1197673545        5.1846227309
  O        23.3335231768        2.4836673689        6.8126009958
  P         1.3669378504        4.5098606736        3.6985645567
  P        17.8744353944        6.1473250269        2.0293330054
  P        12.8320923197        2.8772083290        5.3475971657
  P        24.2192149783        1.2361463468        7.0277257498
 Ca         8.1380209471        7.7894080373        3.0012308993
 Ca         3.0462221710        4.5262222335        6.2983993213
 Ca        24.6158747514        9.4277964076        1.3798650995
 Ca        19.5537014849        6.1725521945        4.6616527763
  O         7.7543272474       10.4887030548        5.1345481160
  O         2.6696136542        7.2150958163        8.3950448080
  O        22.3773725537        0.6153773534        3.4851024419
  O        19.1767902330        8.8621379412        6.7556748617
  O         6.7936982254        9.7120276730        2.8886424911
  O         1.7211776408        6.4284262365        6.1488747649
  O        25.2334810279       22.8480424731        1.2412754192
  O        18.2309756705        8.0803869741        4.5258599474
  P         6.7960746867       10.8217713804        3.9468731741
  P         1.7119533866        7.5593677648        7.3197680273
  P        21.3927422892        0.9516059795        2.3015867663
  P        18.2627168229        9.1793507185        5.6368263231
 Ca         2.9815723376        1.6638081271        3.3622977676
 Ca        19.4801659384        3.2933826970        1.7047851306
 Ca        14.4217086501        0.0192152072        4.9863737151
 Ca        27.7443816752        9.9007388865        6.6765960468
  O        17.2380431570        0.0734165963        2.2229511086
  O        14.0610837250        8.3019080297        5.5113616916
  O         2.6382755347        9.9361923125        3.8547337753
  O        25.5043210648        6.6491478746        7.1376365682
  O        15.5174738806        1.5066121520        0.9995938636
  O        12.3426898867        9.7466124355        4.2821054479
  O        28.8586472899       11.3881347865        2.6284373414
  O        23.7794280802        8.1054744071        5.9139200402
  P        16.4260663868        1.3513344804        2.2133187914
  P        13.2405362087        9.6105737082        5.5345705361
  P        29.7423008682       11.2425435798        3.8878082696
  P        24.6783208741        7.9905101744        7.2075292415
 Ca         4.7496755361        5.3575322655        2.5883692297
 Ca        16.1803075815        3.7346936693        4.2107595121
 Ca        11.1215078158        0.4400752873        7.5097279404
 Ca        27.6136167715        2.0806578996        5.8711812973
  O        14.0033326768        6.2825207760        3.4216683176
  O         8.9359012556        3.0093076938        6.6939402995
  O        25.4588744999        4.6409871194        5.0547705428
  O        20.3536347455        1.3721233890        8.3278736885
  O        14.7724957284        4.0596655335        2.4012645946
  O         9.6972542051        0.7935221840        5.6806038247
  O        26.2261852231        2.4192304990        4.0245174695
  O        24.9323896334       22.1804758853        7.3114571670
  P        13.8935784727        5.3082155253        2.1763201888
  P         8.7913718633        2.0306661417        5.5128617463
  P        25.2665155017        3.6692034802        3.8554945011
  P        20.2353547819        0.3959689318        7.1812806283
 Ca         7.1093798130        2.0116207488        2.9111966767
 Ca         3.9290639514       10.2576329009        6.2031944621
 Ca        18.5551359871        0.3707943095        4.5464096405
 Ca        15.3856683948        8.6303587516        7.8347389364
  O         9.3931813807       10.8370767440        0.8161448043
  O         4.3065432828        7.5647864923        4.0765612920
  O        20.8283486982        9.1969565118        2.4516398289
  O        15.7288202383        5.9273736524        5.7209168371
  O        10.3390420216       11.6261894991        3.0621558996
  O         5.2676731094        8.3430101481        6.3205938937
  O        21.7765594711        9.9774064981        4.6826096062
  O        16.6799773170        6.7132890016        7.9653761646
  P        10.3444530611       10.5018214060        1.8858749575
  P         5.2599839163        7.2334271205        5.2635876433
  P        21.7517747467        8.8644404410        3.5724834390
  P        16.7162342336        5.5985050008        6.9098879899
 Ca        12.2685688197        8.1575000943        2.5411524734
 Ca         7.1752638786        4.8779521190        5.8499043025
 Ca        23.6781013757        6.5150369206        4.2008693156
 Ca        18.6288781734        3.2495113400        7.5030204410
 Ca        13.3596344783        2.1557189915        1.8624063378
 Ca        10.1602804312       10.3939130185        5.1452873260
 Ca        24.7531855243        0.5237684287        3.5304039217
 Ca        21.5816947108        8.7572543748        6.8067163498
 Ca         4.4424449865        9.2895752416        2.4214467248
 Ca        15.8762734387        7.6493146120        4.0470857869
 Ca        10.7833509287        4.3783810124        7.3347664664
 Ca        27.3006921150        6.0336976254        5.7132510658
 Ca         1.8999645712        7.6597474375        4.0653648703
 Ca        18.4285549693        9.2970890628        2.4004399160
 Ca        13.3531484236        6.0228037953        5.6789464384
 Ca        24.7490380728        4.3877816173        7.3454694568
 Ca        10.8063179944        0.5085184327        3.4964250638
 Ca         7.6183196594        8.7656690825        6.7881366753
 Ca        27.3215928977        2.1675877139        1.8752826051
 Ca        24.1324670190       10.4047790142        5.1613214335
  O         4.3250000000        2.8740000000        5.0050000000
  O        30.7339003746       22.3676111396        8.5471915118
  O        20.8390010000        4.5100000000        3.3610000000
  O        15.7590000000        1.2390000000        6.6500000000
  H         4.8516700565        3.1250464663        4.7537817175
  H        31.4295515963       22.8160651407        8.1057383951
  H        21.3161528467        4.7285769478        3.1407032826
  H        16.2709475490        1.4823714267        6.4130667577
  O         6.8640000000        4.5100000000        3.3610000000
  O         1.7850000000        1.2390000000        6.6500000000
  O        18.2990000000        2.8740000000        5.0050000000
  O        16.7572594638       22.3682096024        8.5507516799
  H         7.3185638595        4.7146115696        3.1495111282
  H         2.3074334435        1.4864706586        6.4024002353
  H        18.8182781323        3.1207870702        4.7564473860
  H        17.4460267463       22.8089854763        8.1111699316
  O         5.8340000000        3.6690000000        4.2040000000
  O         0.7550000000        0.3970000000        7.4930000000
  O        22.6145800210        5.5651186817        2.3048932595
  O        17.2689990000        2.0330000000        5.8480000000
  H         5.3092155073        3.4204157001        4.4538502599
  H         0.2752034913        0.1780492857        7.7211224614
  H        21.9203241936        5.1179413345        2.7446527361
  H        16.7503949464        1.7891139210        6.0940455405
  O         8.6417924348        5.5669261564        2.3029249671
  O         3.2940000000        2.0330000000        5.8480000000
  O        19.8080010000        3.6690000000        4.2040000000
  O        14.7290000000        0.3970000000        7.4930000000
  H         7.9472853916        5.1188115756        2.7428117788
  H         2.7718576239        1.7852621851        6.1030802719
  H        19.2950320986        3.4271807671        4.4495988873
  H        14.2797035121        0.1965750668        7.7023431213
  O        18.1502440641       21.5392915863        0.8005836769
  O        13.0640134805       18.2621482804        4.0832768452
  O        29.5866078107       19.8950472282        2.4222965615
  O        24.5093770786       16.6215702719        5.7047400149
  O         4.7253881203       16.5250779479        3.8467488109
  O        21.2450924887       18.1532833372        2.2074791107
  O        16.1444736119       14.8853259955        5.4883684066
  O        27.6163052988       13.2731113772        7.1258012231
  O         5.2660535934        0.6479841545        3.2893743684
  O         4.0068632231       20.4071712170        6.5503658937
  O        23.6822176140       13.7942021462        1.6425954464
  O        20.5002963714       22.0383354282        4.9211244154
  O        19.2541173653       14.1262750403        2.3092020540
  O        16.0643762496       22.3675771284        5.5858485582
  O         0.8333605666        0.9772407760        3.9397190763
  O        27.5005187116       20.7201265919        7.2185413091
  O        16.1479991667       17.4968685652        0.8992634265
  O        11.0750509610       14.2281359269        4.1630127656
  O        27.6102468574       15.8625976757        2.5176697333
  O        22.5077283168       12.5990766790        5.7993862119
  O        13.7045455621       21.8682203505        1.4640301847
  O         8.6325090208       18.5933479885        4.7359965792
  O        25.1640132630       20.2316604461        3.0853067363
  O        20.0598104109       16.9479411601        6.3740336412
  O        17.3987878291       12.9444030046        3.5049378270
  O        14.2240893470       21.1838483318        6.7802550461
  O        30.7510604674       22.8170154913        5.1268293671
  O        25.6617760029       19.5364476255        8.4106695136
  O        14.2920179593       16.2969667066        2.0852860249
  O         9.2367418168       13.0421430998        5.3645006072
  O        25.7688673343       14.6748580264        3.7220382318
  O        20.6622596814       11.4128197422        6.9992107498
  O        11.8609395267       20.6665709066        2.6597685877
  O         6.7953200579       17.4084434290        5.9207390565
  O        23.3077304635       19.0451292327        4.2891260331
  O        18.2262500898       15.7661508881        7.5667413740
  O        16.3096261273       20.3563721497        1.9942755823
  O        11.2252126073       17.0765741382        5.2723932920
  O        27.7504906948       18.7103596773        3.6159000143
  O        22.6559992576       15.4383506574        6.9010873328
  O         2.8864428694       15.3410416763        5.0430098440
  O        19.4024282412       16.9666935628        3.4098096315
  O        14.3070386919       13.7021352396        6.6928597633
  O        25.7602368436       12.0716168941        8.3098081114
  O         7.2334279238       22.4833571016        4.4709462315
  O        30.1096235369       19.2041808415        7.7433718208
  O        21.8504140752       12.6172988670        2.8330574710
  O        18.6501776107       20.8549056291        6.1249126367
  O        16.4059825493       22.9171538313        2.0743905886
  O        11.3241017812       19.6295931411        5.3548012796
  O        27.8493799811       21.2645162200        3.6945410099
  O        22.7711376241       17.9830629937        6.9878637915
  O        18.1323985985       21.4615391196        3.3018615078
  O        13.0527790347       18.1764722743        6.5818257073
  O        29.5668405800       19.8191132670        4.9202124386
  O        24.4914046375       16.5493575191        8.2093394435
  P        17.2332036565       21.5756547493        1.9972672963
  P        12.1679388459       18.3225782173        5.3192901178
  P        28.6702686903       19.9567677569        3.6809192544
  P        23.5844000257       16.7032264468        6.9927961590
 Ca        12.3893693897       15.9826862402        3.3288957642
 Ca         7.3039601643       12.6964653085        6.6202070699
 Ca        28.8893030388       17.6068806798        1.7058449192
 Ca        23.8298691473       14.3205123467        4.9965387666
  O         3.1244721284       15.0439984164        2.5125789605
  O        19.6539047689       16.6832537047        0.8823709543
  O        14.5528898969       13.4156438043        4.1598077567
  O        26.0051158624       11.7722043071        5.7863054304
  O        30.3116081721       17.2643872765        3.5278255571
  O        18.8795478811       18.8973012439        1.8974624790
  O        13.7867035038       15.6315856522        5.1846798470
  O        25.2353476906       13.9946658768        6.8126749585
  P         3.2683921941       16.0218351119        3.6985179270
  P        19.7757290287       17.6595244666        2.0293318018
  P        14.7337268461       14.3890826914        5.3478208766
  P        26.1210649125       12.7473376750        7.0277900834
 Ca        10.0390643763       19.3013605972        3.0012519270
 Ca         4.9481327131       16.0372139796        6.2984006153
 Ca        26.5168659275       20.9397242897        1.3798715348
 Ca        21.4556590807       17.6836024907        4.6616015489
  O         9.6563715612       22.0006678115        5.1344738032
  O         4.5707939845       18.7259415975        8.3952637382
  O        24.2792327828       12.1263910555        3.4849606160
  O        21.0786715700       20.3732140278        6.7556040396
  O         8.6948524544       21.2238133640        2.8884860490
  O         3.6232042562       17.9394358385        6.1489050046
  O        23.3320319194       11.3366182440        1.2410670095
  O        20.1329573232       19.5921615350        4.5256377475
  P         8.6979772984       22.3333703516        3.9469316150
  P         3.6134119041       19.0705722141        7.3195985945
  P        23.2943215960       12.4632217781        2.3016740739
  P        20.1650210346       20.6907518716        5.6370826146
 Ca         4.8835109432       13.1758123213        3.3623148514
 Ca        21.3821938440       14.8043885945        1.7047355590
 Ca        16.3236018800       11.5312809691        4.9863375407
 Ca        29.6464723036       21.4128524781        6.6766176488
  O        19.1401616421       11.5850400534        2.2229685670
  O        15.9631242005       19.8138098241        5.5113502031
  O         4.5403119536       21.4481656440        3.8547479263
  O        27.4063125830       18.1609858319        7.1376519266
  O        17.4186409097       13.0185586463        0.9998060199
  O        14.2446936718       21.2585656963        4.2820480260
  O        30.7606584167       22.8991655654        2.6284291810
  O        25.6807023901       19.6174208616        5.9141975797
  P        18.3277769082       12.8625835788        2.2130956536
  P        15.1421866416       21.1222327713        5.5347428309
  P        31.6439652859       22.7542316509        3.8880054430
  P        26.5802657443       19.5020149880        7.2071201750
 Ca         6.6506307366       16.8694947711        2.5883856963
 Ca        18.0823731184       15.2466326649        4.2108296248
 Ca        13.0234950106       11.9511433557        7.5096962481
 Ca        29.5155276383       13.5927011149        5.8711582039
  O        15.9052662759       17.7934872894        3.4215420995
  O        10.8378070600       14.5211447777        6.6937226661
  O        27.3609022043       16.1520819203        5.0548637791
  O        22.2548043866       12.8839911729        8.3278926979
  O        16.6741486187       15.5708880539        2.4011521480
  O        11.5986222300       12.3050197147        5.6806842685
  O        28.1273429635       13.9300508428        4.0245682588
  O        23.0310679063       10.6693922226        7.3116010341
  P        15.7950041962       16.8192309556        2.1763321257
  P        10.6931830642       13.5422778546        5.5129984700
  P        27.1683894628       15.1803875969        3.8554674189
  P        22.1369369456       11.9081760954        7.1810452905
 Ca         9.0104403979       13.5236379480        2.9111974763
 Ca         5.8311207764       21.7695836397        6.2032479592
 Ca        20.4571145422       11.8820952263        4.5464498377
 Ca        17.2866728772       20.1413851164        7.8347375037
  O        11.2942763904       22.3490422214        0.8162349455
  O         6.2085121635       19.0767714108        4.0765640742
  O        22.7304336498       20.7089204709        2.4516490016
  O        17.6307226864       17.4384732571        5.7208141939
  O         8.4376267889        0.1148813774        3.0620125390
  O         7.1695483347       19.8541582688        6.3206602814
  O        23.6785447062       21.4894878069        4.6826200534
  O        18.5809732075       18.2244869711        7.9655314448
  P        12.2455859369       22.0134950186        1.8857944407
  P         7.1620323987       18.7450171113        5.2636300207
  P        23.6535418479       20.3764182241        3.5723458125
  P        18.6182153751       17.1099194520        6.9099809202
 Ca        14.1696120110       19.6685587412        2.5411640235
 Ca         9.0773867686       16.3900440097        5.8499283812
 Ca        25.5800456980       18.0261245203        4.2007963044
 Ca        20.5306818447       14.7615209337        7.5030361131
 Ca        15.2607319575       13.6677132491        1.8623883336
 Ca        12.0622731221       21.9058613764        5.1453611529
 Ca        26.6551195596       12.0348126546        3.5303714466
 Ca        23.4836741802       20.2683544524        6.8065772535
 Ca         6.3434549118       20.8006241463        2.4214079631
 Ca        17.7783302257       19.1602905645        4.0470653863
 Ca        12.6852889572       15.8904520769        7.3347984547
 Ca        29.2026752874       17.5457169290        5.7132572106
 Ca         3.8019393037       19.1717617870        4.0653849409
 Ca        20.3305532301       20.8088924315        2.4004784932
 Ca        15.2551120553       17.5338753050        5.6789737398
 Ca        26.6501698317       15.8988001864        7.3454494770
 Ca        12.7083419138       12.0205109110        3.4964662869
 Ca         9.5193864805       20.2775612907        6.7883408384
 Ca        29.2235488590       13.6795470345        1.8753242305
 Ca        26.0334898452       21.9166613695        5.1612831199
  O         6.2260000000       14.3860000000        5.0050000000
  O        28.8327833718       10.8557035199        8.5470758689
  O        22.7400000000       16.0220000000        3.3610000000
  O        17.6609990000       12.7500000000        6.6500000000
  H         6.7533007551       14.6357587271        4.7532960642
  H        29.5277449994       11.3047890772        8.1059886630
  H        23.2173746321       16.2404190972        3.1406668822
  H        18.1725079484       12.9929283609        6.4134603993
  O         8.7660000000       16.0220000000        3.3610000000
  O         3.6870000000       12.7500000000        6.6500000000
  O        20.2010000000       14.3860000000        5.0050000000
  O        14.8549698360       10.8562795345        8.5507180583
  H         9.2205031835       16.2262618609        3.1495809711
  H         4.2097745891       12.9978398984        6.4022427355
  H        20.7199838353       14.6312705607        4.7566482708
  H        15.5435079086       11.2978582246        8.1112257544
  O         7.7360000000       15.1800000000        4.2040000000
  O         2.6560000000       11.9090000000        7.4930000000
  O        24.5168193106       17.0762034960        2.3047720069
  O        19.1700000000       13.5440000000        5.8480000000
  H         7.2110897363       14.9314499791        4.4538303668
  H         2.1775656421       11.6885783386        7.7211359802
  H        23.8219940868       16.6297046393        2.7449023764
  H        18.6532119382       13.3004681761        6.0943397227
  O        10.5432185937       17.0781807985        2.3026405424
  O         5.1960000000       13.5440000000        5.8480000000
  O        21.7099990000       15.1800000000        4.2040000000
  O        16.6310010000       11.9090000000        7.4930000000
  H         9.8488228205       16.6304888759        2.7431495582
  H         4.6725636560       13.2966173556        6.1031202840
  H        21.1963942153       14.9390015652        4.4492477987
  H        16.1821399250       11.7071995963        7.7021609797
  O        16.2408071596       10.0059898511       15.5285830460
  C        15.5408559537       11.2103168395       15.5614214120
  O        14.8412750348       12.4175547879       15.5934532982
     387
 i =        2, E =     -6911.3497482971
  O        16.2493738528       10.0282630511        0.8001476705
  O        11.1619271229        6.7503259705        4.0837588832
  O        27.6840886000        8.3831813721        2.4230942780
  O        22.6068009703        5.1102150990        5.7071130741
  O         2.8230714746        5.0140577317        3.8462232183
  O        19.3416394362        6.6420896910        2.2069495347
  O        14.2427213203        3.3749073777        5.4880483273
  O        25.7123498318        1.7601223595        7.1259318546
  O         7.1685054291       12.1587096501        3.2890375818
  O         2.1040723287        8.8940050208        6.5514297195
  O        21.7805357100        2.2815581351        1.6421587483
  O        18.5987911685       10.5246715723        4.9213970619
  O        17.3507575232        2.6138346289        2.3081031723
  O        14.1612030666       10.8552851578        5.5853933706
  O         2.7342068043       12.4881702997        3.9387826648
  O        25.5983934431        9.2083388964        7.2187491163
  O        14.2465381508        5.9853812578        0.8977165819
  O         9.1727466595        2.7161889324        4.1646426118
  O        25.7076530325        4.3511218818        2.5184220212
  O        20.6064995380        1.0856458956        5.8020027008
  O        11.8030158625       10.3562820203        1.4635429437
  O         6.7290756079        7.0828372198        4.7369951560
  O        23.2595751147        8.7207782889        3.0857933027
  O        18.1570102677        5.4369046835        6.3747576509
  O        15.4979639818        1.4330490287        3.5020930920
  O        12.3230320368        9.6724168833        6.7794854967
  O        28.8497003275       11.3056449577        5.1262790245
  O        23.7597493164        8.0254124268        8.4108436779
  O        12.3935043596        4.7861518063        2.0848661031
  O         7.3351181478        1.5310522437        5.3651169182
  O        23.8662280159        3.1627043886        3.7217558521
  O        22.5658029185       22.9247143279        7.0001429045
  O         9.9597411937        9.1570542047        2.6578794257
  O         4.8931264315        5.8976774214        5.9212434453
  O        21.4059540293        7.5342553739        4.2883944552
  O        16.3242980561        4.2564922079        7.5669116347
  O        14.4079481246        8.8452659209        1.9938405491
  O         9.3239753170        5.5657062472        5.2730653309
  O        25.8488262715        7.1999132455        3.6160997014
  O        20.7565249795        3.9282572017        6.9022922892
  O         0.9847815545        3.8298780471        5.0418258170
  O        17.5007464688        5.4561934968        3.4070787165
  O        12.4059345539        2.1920650623        6.6915840550
  O        23.8578858830        0.5600874857        8.3109330391
  O         5.3325929973       10.9711321011        4.4703378612
  O        28.2082185765        7.6922731724        7.7437981336
  O        19.9496163216        1.1045542292        2.8320003125
  O        16.7513801943        9.3416720931        6.1234783265
  O        14.5047266490       11.4038049985        2.0738705626
  O         9.4226716993        8.1178085098        5.3551264057
  O        25.9477508520        9.7526019704        3.6947387204
  O        20.8696084707        6.4722701068        6.9883426257
  O        16.2296859345        9.9501505917        3.2997679070
  O        11.1504342932        6.6655381801        6.5817857405
  O        27.6647880290        8.3080967423        4.9203178681
  O        22.5902499571        5.0376283509        8.2099770458
  P        15.3311169257       10.0654304096        1.9996815475
  P        10.2649065685        6.8102771353        5.3187891929
  P        26.7679343274        8.4450343200        3.6798707838
  P        21.6834104327        5.1889022302        6.9897681702
 Ca        10.4868291162        4.4715680047        3.3286860985
 Ca         5.4013831091        1.1848473490        6.6192595851
 Ca        26.9872827869        6.0958974919        1.7059703298
 Ca        21.9263221069        2.8099031868        4.9951105532
  O         1.2236254662        3.5322167017        2.5125739163
  O        17.7525306638        5.1718375865        0.8813940436
  O        12.6510903084        1.9039993924        4.1598319674
  O        24.1029672568        0.2611952868        5.7881920506
  O        28.4098192943        5.7519853234        3.5277692528
  O        16.9773555800        7.3852899075        1.8969769211
  O        11.8857098432        4.1195959324        5.1848060823
  O        23.3336155826        2.4832256265        6.8132148955
  P         1.3672947577        4.5095231091        3.6999834291