 DBCSR| CPU Multiplication driver                                           XSMM (U)
 DBCSR| Multrec recursion limit                                              512 (U)
 DBCSR| Multiplication stack size                                          50000 (U)
 DBCSR| Maximum elements for images                                    UNLIMITED (U)
 DBCSR| Multiplicative factor virtual images                                   1 (U)
 DBCSR| Use multiplication densification                                       F (D)
 DBCSR| Multiplication size stacks                                             3 (U)
 DBCSR| Use memory pool for CPU allocation                                     T (U)
 DBCSR| Number of 3D layers                                               SINGLE (U)
 DBCSR| Use MPI memory allocation                                              F (U)
 DBCSR| Use RMA algorithm                                                      F (U)
 DBCSR| Use Communication thread                                               T (U)
 DBCSR| Communication thread load                                             30 (D)
 DBCSR| MPI: My process id                                                     0
 DBCSR| MPI: Number of processes                                               1
 DBCSR| OMP: Current number of threads                                        16
 DBCSR| OMP: Max number of threads                                            16
 DBCSR| ACC: Number of devices/node                                            1
 DBCSR| ACC: Number of stack-buffers per thread                              128 (U)
 DBCSR| ACC: Avoid driver after busy                                           F (U)
 DBCSR| ACC: Process inhomogeneous stacks                                      T (U)
 DBCSR| ACC: Min. flop for processing                                        500 (U)
 DBCSR| ACC: Use G2G algorithm                                                 F (D)
 DBCSR| ACC: Min. flop for sorting                                           100 (U)
 DBCSR| ACC: Number of binning bins                                        16384 (U)
 DBCSR| ACC: Size of binning bins                                             16 (U)
 DBCSR| ACC: GPU backend is enabled                                            T (D)
 DBCSR| Split modifier for TAS multiplication algorithm                  1.0E+00 (U)


  **** **** ******  **  PROGRAM STARTED AT               2025-11-26 12:12:57.884
 ***** ** ***  *** **   PROGRAM STARTED ON                          0eb7dee5f90a
 **    ****   ******    PROGRAM STARTED BY                             <unknown>
 ***** **    ** ** **   PROGRAM PROCESS ID                                   638
  **** **  *******  **  PROGRAM STARTED IN                             /mnt/cp2k

 CP2K| version string:                 CP2K version 2025.2 (Development Version)
 CP2K| source code revision number:                                  git:e68414f
 CP2K| cp2kflags: omp libint fftw3 libxc libgrpp elpa elpa_nvidia_gpu parallel s
 CP2K|            calapack cosma ace deepmd xsmm dbcsr_acc plumed2 spglib libdft
 CP2K|            td4 mctc-lib tblite sirius libvori libbqb libtorch offload_cud
 CP2K|            da spla_gemm_offloading libvdwxc hdf5 trexio libsmeagol greenx
 CP2K| is freely available from                            https://www.cp2k.org/
 CP2K| Program compiled at                          Sun Nov  2 00:48:36 UTC 2025
 CP2K| Program compiled on                                       buildkitsandbox
 CP2K| Program compiled for                                           local_cuda
 CP2K| Data directory path                                        /opt/cp2k/data
 CP2K| Input file name                                            HAP_322_md.inp

 GLOBAL| Force Environment number                                              1
 GLOBAL| Basis set file name                                        BASIS_MOLOPT
 GLOBAL| Potential file name                                      GTH_POTENTIALS
 GLOBAL| MM Potential file name                                     MM_POTENTIAL
 GLOBAL| Coordinate file name                                      __STD_INPUT__
 GLOBAL| Method name                                                        CP2K
 GLOBAL| Project name                                                 HAP_322_md
 GLOBAL| Run type                                                             MD
 GLOBAL| FFT library                                                       FFTW3
 GLOBAL| Diagonalization library                                            ELPA
 GLOBAL| Cholesky decomposition library                                ScaLAPACK
 GLOBAL| DGEMM library                                                      SPLA
 GLOBAL| Minimum number of eigenvectors for ELPA usage                        16
 GLOBAL| Orthonormality check for eigenvectors enabled                 1.000E-12
 GLOBAL| Matrix multiplication library                                     COSMA
 GLOBAL| All-to-all communication in single precision                          F
 GLOBAL| FFTs using library dependent lengths                                  F
 GLOBAL| Grid backend                                                       AUTO
 GLOBAL| Global print level                                                  LOW
 GLOBAL| MPI I/O enabled                                                       T
 GLOBAL| Total number of message passing processes                             1
 GLOBAL| Number of distributed systems (nodes)                                 1
 GLOBAL| Number of threads for this process                                   16
 GLOBAL| This output is from process                                           0
 GLOBAL| OpenMP stack size per thread (OMP_STACKSIZE)                        16M
 GLOBAL| CPU model name                           Intel(R) Core(TM) Ultra 7 265K
 GLOBAL| CPUID                                                              1002

 MEMORY| system memory details [Kb]
 MEMORY|                        rank 0           min           max       average
 MEMORY| MemTotal             49330336      49330336      49330336      49330336
 MEMORY| MemFree              47253316      47253316      47253316      47253316
 MEMORY| Buffers                  7400          7400          7400          7400
 MEMORY| Cached                 867920        867920        867920        867920
 MEMORY| Slab                   200280        200280        200280        200280
 MEMORY| SReclaimable            98432         98432         98432         98432
 MEMORY| MemLikelyFree        48227068      48227068      48227068      48227068


 GENERATE|  Preliminary Number of Bonds generated:                             0
 GENERATE|  Achieved consistency in connectivity generation.

 *******************************************************************************
 *******************************************************************************
 **                                                                           **
 **     #####                         ##              ##                      **
 **    ##   ##            ##          ##              ##                      **
 **   ##     ##                       ##            ######                    **
 **   ##     ##  ##   ##  ##   #####  ##  ##   ####   ##    #####    #####    **
 **   ##     ##  ##   ##  ##  ##      ## ##   ##      ##   ##   ##  ##   ##   **
 **   ##  ## ##  ##   ##  ##  ##      ####     ###    ##   ######   ######    **
 **    ##  ###   ##   ##  ##  ##      ## ##      ##   ##   ##       ##        **
 **     #######   #####   ##   #####  ##  ##  ####    ##    #####   ##        **
 **           ##                                                    ##        **
 **                                                                           **
 **                                                ... make the atoms dance   **
 **                                                                           **
 **            Copyright (C) by CP2K developers group (2000-2025)             **
 **                      J. Chem. Phys. 152, 194103 (2020)                    **
 **                                                                           **
 *******************************************************************************


 TOTAL NUMBERS AND MAXIMUM NUMBERS

  Total number of            - Atomic kinds:                                   5
                             - Atoms:                                        387
                             - Shell sets:                                   387
                             - Shells:                                      2015
                             - Primitive Cartesian functions:               2031
                             - Cartesian basis functions:                   5338
                             - Spherical basis functions:                   4983

  Maximum angular momentum of- Orbital basis functions:                        2
                             - Local part of the GTH pseudopotential:          2
                             - Non-local part of the GTH pseudopotential:      3


 SCF PARAMETERS         Density guess:                                    ATOMIC
                        --------------------------------------------------------
                        max_scf:                                             100
                        max_scf_history:                                       0
                        max_diis:                                              4
                        --------------------------------------------------------
                        eps_scf:                                        1.00E-05
                        eps_scf_history:                                0.00E+00
                        eps_diis:                                       0.00E+00
                        eps_eigval:                                     1.00E-05
                        --------------------------------------------------------
                        level_shift [a.u.]:                             0.000000
                        --------------------------------------------------------
                        Outer loop SCF in use 
                        No variables optimised in outer loop
                        eps_scf                                         1.00E-05
                        max_scf                                               50
                        No outer loop optimization
                        step_size                                       5.00E-01

 MD_PAR| Molecular dynamics protocol (MD input parameters)
 MD_PAR| Ensemble type                                                       NVT
 MD_PAR| Number of time steps                                                200
 MD_PAR| Time step [fs]                                                 0.250000
 MD_PAR| Temperature [K]                                              973.000000
 MD_PAR| Temperature tolerance [K]                                      0.000000
 MD_PAR| Print MD information every                                    1 step(s)
 MD_PAR| File type   Print frequency [steps]                          File names
 MD_PAR| Coordinates          1                               HAP_322_md-pos.xyz
 MD_PAR| Velocities           1                             HAP_322_md-vel-1.xyz
 MD_PAR| Energies             1                                HAP_322_md-1.ener
 MD_PAR| Dump                20                             HAP_322_md-1.restart

 ROT| Rotational analysis information
 ROT| Principal axes and moments of inertia [a.u.]
 ROT|                           1                   2                   3
 ROT| Eigenvalues      2.52524350897E+09   3.78508692574E+09   5.82058455443E+09
 ROT|      x              0.948276064310     -0.317432443644     -0.003024827077
 ROT|      y              0.317446842020      0.948230232479      0.009323556409
 ROT|      z             -0.000091366811     -0.009801527180      0.999951959705
 ROT| Number of rotovibrational vectors                                        6

 DOF| Calculation of degrees of freedom
 DOF| Number of atoms                                                        387
 DOF| Number of intramolecular constraints                                     0
 DOF| Number of intermolecular constraints                                     0
 DOF| Invariants (translations + rotations)                                    3
 DOF| Degrees of freedom                                                    1158

 DOF| Restraints information
 DOF| Number of intramolecular restraints                                      0
 DOF| Number of intermolecular restraints                                      0

 THERMOSTAT| Thermostat information for PARTICLES
 THERMOSTAT| Type of thermostat            Canonical Sampling/Velocity Rescaling
 THERMOSTAT| CSVR time constant [fs]                                    1.000000
 THERMOSTAT| Initial kinetic energy                           0.000000000000E+00
 THERMOSTAT| End of thermostat information for PARTICLES

 MD_VEL| Velocities initialization
 MD_VEL| Initial temperature [K]                                      973.000000
 MD_VEL| COM velocity            -0.0000000000    -0.0000000000     0.0000000000

 Extrapolation method: initial_guess

 Number of electrons:                                                       2432
 Number of occupied orbitals:                                               1216
 Number of molecular orbitals:                                              1216

 Number of orbital functions:                                               4983
 Number of independent orbital functions:                                   4983


 SCF WAVEFUNCTION OPTIMIZATION

  ----------------------------------- OT ---------------------------------------
  Minimizer      : DIIS                : direct inversion
                                         in the iterative subspace
                                         using   7 DIIS vectors
                                         safer DIIS on
  Preconditioner : FULL_SINGLE_INVERSE : inversion of 
                                         H + eS - 2*(Sc)(c^T*H*c+const)(Sc)^T
  Precond_solver : DEFAULT
  stepsize       :    0.08000000                  energy_gap     :    0.08000000
  eps_taylor     :   0.10000E-15                  max_taylor     :             4
  ----------------------------------- OT ---------------------------------------

  Step     Update method      Time    Convergence         Total energy    Change
  ------------------------------------------------------------------------------
     1 OT DIIS     0.80E-01   23.9     0.01750913     -6725.9435573471 -6.73E+03
     2 OT DIIS     0.80E-01   10.3     0.02074370     -6788.2153407067 -6.23E+01
     3 OT DIIS     0.80E-01   10.2     0.01220417     -6819.5376228306 -3.13E+01
     4 OT DIIS     0.80E-01   10.1     0.00695600     -6847.8764597779 -2.83E+01
     5 OT DIIS     0.80E-01    9.7     0.00632607     -6864.1218003379 -1.62E+01
     6 OT DIIS     0.80E-01   10.0     0.00464955     -6875.6445751281 -1.15E+01
     7 OT DIIS     0.80E-01   10.0     0.00439293     -6885.5174566067 -9.87E+00
     8 OT DIIS     0.80E-01    9.9     0.00364435     -6890.6806185154 -5.16E+00
     9 OT DIIS     0.80E-01   10.1     0.00286257     -6896.3097493329 -5.63E+00
    10 OT DIIS     0.80E-01    9.9     0.00263520     -6899.6584346792 -3.35E+00
    11 OT DIIS     0.80E-01    9.9     0.00207905     -6902.6977442146 -3.04E+00
    12 OT DIIS     0.80E-01    9.9     0.00196902     -6905.3051729425 -2.61E+00
    13 OT DIIS     0.80E-01   10.1     0.00161218     -6906.4046957233 -1.10E+00
    14 OT DIIS     0.80E-01   10.2     0.00126216     -6907.9708868099 -1.57E+00
    15 OT DIIS     0.80E-01   10.1     0.00122299     -6908.8418188171 -8.71E-01
    16 OT DIIS     0.80E-01   10.1     0.00112126     -6909.6368641575 -7.95E-01
    17 OT DIIS     0.80E-01   10.1     0.00104805     -6910.1133070633 -4.76E-01
    18 OT DIIS     0.80E-01   10.1     0.00089562     -6910.5733809899 -4.60E-01
    19 OT DIIS     0.80E-01    9.7     0.00077283     -6910.9280103355 -3.55E-01
    20 OT DIIS     0.80E-01    9.9     0.00068785     -6911.2634445144 -3.35E-01
    21 OT DIIS     0.80E-01    9.9     0.00067732     -6911.5235154584 -2.60E-01
    22 OT DIIS     0.80E-01   10.1     0.00058141     -6911.7829483178 -2.59E-01
    23 OT DIIS     0.80E-01   10.3     0.00052700     -6912.0297359013 -2.47E-01
    24 OT DIIS     0.80E-01   10.0     0.00051790     -6912.2155724865 -1.86E-01
    25 OT DIIS     0.80E-01   10.4     0.00047780     -6912.3309942173 -1.15E-01
    26 OT DIIS     0.80E-01   10.2     0.00044462     -6912.4529752763 -1.22E-01
    27 OT DIIS     0.80E-01   10.1     0.00041303     -6912.5684811843 -1.16E-01
    28 OT DIIS     0.80E-01   10.0     0.00038307     -6912.6838826203 -1.15E-01
    29 OT DIIS     0.80E-01   10.2     0.00036762     -6912.7782500808 -9.44E-02
    30 OT DIIS     0.80E-01    9.9     0.00032410     -6912.8512858049 -7.30E-02
    31 OT DIIS     0.80E-01   10.1     0.00029648     -6912.9323326610 -8.10E-02
    32 OT DIIS     0.80E-01   10.1     0.00029340     -6912.9998312754 -6.75E-02
    33 OT DIIS     0.80E-01   10.1     0.00028982     -6913.0553706623 -5.55E-02
    34 OT DIIS     0.80E-01   10.2     0.00027739     -6913.1107681243 -5.54E-02
    35 OT DIIS     0.80E-01   10.1     0.00025497     -6913.1616572819 -5.09E-02
    36 OT DIIS     0.80E-01    9.9     0.00023147     -6913.2053463332 -4.37E-02
    37 OT DIIS     0.80E-01   10.1     0.00022432     -6913.2426378676 -3.73E-02
    38 OT DIIS     0.80E-01   10.0     0.00020869     -6913.2708538397 -2.82E-02
    39 OT DIIS     0.80E-01    9.9     0.00019620     -6913.3093207867 -3.85E-02
    40 OT DIIS     0.80E-01   10.1     0.00019733     -6913.3454205874 -3.61E-02
    41 OT DIIS     0.80E-01   10.0     0.00018945     -6913.3720029533 -2.66E-02
    42 OT DIIS     0.80E-01   10.1     0.00017761     -6913.3956440623 -2.36E-02
    43 OT DIIS     0.80E-01   10.1     0.00016699     -6913.4164027928 -2.08E-02
    44 OT DIIS     0.80E-01   10.1     0.00015821     -6913.4361291414 -1.97E-02
    45 OT DIIS     0.80E-01   10.1     0.00015705     -6913.4567751140 -2.06E-02
    46 OT DIIS     0.80E-01   10.1     0.00015036     -6913.4730946530 -1.63E-02
    47 OT DIIS     0.80E-01   10.0     0.00014060     -6913.4937719064 -2.07E-02
    48 OT DIIS     0.80E-01   10.0     0.00013411     -6913.5104139503 -1.66E-02
    49 OT DIIS     0.80E-01   10.1     0.00013173     -6913.5225812264 -1.22E-02
    50 OT DIIS     0.80E-01    9.7     0.00012626     -6913.5343914073 -1.18E-02
    51 OT DIIS     0.80E-01   10.3     0.00012382     -6913.5471490399 -1.28E-02
    52 OT DIIS     0.80E-01   10.3     0.00011915     -6913.5601500641 -1.30E-02
    53 OT DIIS     0.80E-01   10.2     0.00011819     -6913.5733398433 -1.32E-02
    54 OT DIIS     0.80E-01    9.8     0.00010928     -6913.5815725985 -8.23E-03
    55 OT DIIS     0.80E-01   10.3     0.00010235     -6913.5913184487 -9.75E-03
    56 OT DIIS     0.80E-01    9.9     0.00010042     -6913.6002846992 -8.97E-03
    57 OT DIIS     0.80E-01    9.9     0.00010110     -6913.6088894426 -8.60E-03
    58 OT DIIS     0.80E-01    9.9     0.00009928     -6913.6176222936 -8.73E-03
    59 OT DIIS     0.80E-01   10.1     0.00009646     -6913.6265130360 -8.89E-03
    60 OT DIIS     0.80E-01   10.1     0.00008971     -6913.6339325393 -7.42E-03
    61 OT DIIS     0.80E-01   10.5     0.00008672     -6913.6406303285 -6.70E-03
    62 OT DIIS     0.80E-01   10.2     0.00008345     -6913.6452550034 -4.62E-03
    63 OT DIIS     0.80E-01   10.0     0.00008131     -6913.6520396916 -6.78E-03
    64 OT DIIS     0.80E-01   10.2     0.00008041     -6913.6595243276 -7.48E-03
    65 OT DIIS     0.80E-01   10.3     0.00008163     -6913.6661033554 -6.58E-03
    66 OT DIIS     0.80E-01    9.8     0.00007640     -6913.6713914146 -5.29E-03
    67 OT DIIS     0.80E-01   10.3     0.00007285     -6913.6760278236 -4.64E-03
    68 OT DIIS     0.80E-01   10.1     0.00007000     -6913.6800906370 -4.06E-03
    69 OT DIIS     0.80E-01   10.0     0.00007035     -6913.6851513954 -5.06E-03
    70 OT DIIS     0.80E-01   10.2     0.00007004     -6913.6893832807 -4.23E-03
    71 OT DIIS     0.80E-01   10.3     0.00006690     -6913.6953113413 -5.93E-03
    72 OT DIIS     0.80E-01    9.8     0.00006414     -6913.7003476591 -5.04E-03
    73 OT DIIS     0.80E-01   10.1     0.00006201     -6913.7037342465 -3.39E-03
    74 OT DIIS     0.80E-01   10.1     0.00006012     -6913.7065531089 -2.82E-03
    75 OT DIIS     0.80E-01    9.9     0.00006006     -6913.7100608870 -3.51E-03
    76 OT DIIS     0.80E-01   10.0     0.00006006     -6913.7143992922 -4.34E-03
    77 OT DIIS     0.80E-01   10.5     0.00006018     -6913.7194661155 -5.07E-03
    78 OT DIIS     0.80E-01   10.0     0.00005699     -6913.7226242269 -3.16E-03
    79 OT DIIS     0.80E-01   10.1     0.00005289     -6913.7257945460 -3.17E-03
    80 OT DIIS     0.80E-01   10.0     0.00005109     -6913.7281956996 -2.40E-03
    81 OT DIIS     0.80E-01   10.2     0.00005188     -6913.7309675889 -2.77E-03
    82 OT DIIS     0.80E-01   10.1     0.00005317     -6913.7346278581 -3.66E-03
    83 OT DIIS     0.80E-01   10.2     0.00005291     -6913.7387291532 -4.10E-03
    84 OT DIIS     0.80E-01   10.0     0.00004930     -6913.7421552013 -3.43E-03
    85 OT DIIS     0.80E-01   10.0     0.00004649     -6913.7448919695 -2.74E-03
    86 OT DIIS     0.80E-01    9.8     0.00004456     -6913.7462838087 -1.39E-03
    87 OT DIIS     0.80E-01   10.0     0.00004361     -6913.7480548962 -1.77E-03
    88 OT DIIS     0.80E-01   10.3     0.00004495     -6913.7516770316 -3.62E-03
    89 OT DIIS     0.80E-01   10.4     0.00004679     -6913.7555167537 -3.84E-03
    90 OT DIIS     0.80E-01   10.1     0.00004410     -6913.7585340622 -3.02E-03
    91 OT DIIS     0.80E-01   10.3     0.00004035     -6913.7607111827 -2.18E-03
    92 OT DIIS     0.80E-01   10.1     0.00003819     -6913.7620516486 -1.34E-03
    93 OT DIIS     0.80E-01    9.9     0.00003760     -6913.7633286189 -1.28E-03
    94 OT DIIS     0.80E-01   10.0     0.00004030     -6913.7659560413 -2.63E-03
    95 OT DIIS     0.80E-01   10.4     0.00004025     -6913.7692191287 -3.26E-03
    96 OT DIIS     0.80E-01   10.1     0.00003719     -6913.7724896227 -3.27E-03
    97 OT DIIS     0.80E-01   10.1     0.00003506     -6913.7746410147 -2.15E-03
    98 OT DIIS     0.80E-01   10.0     0.00003259     -6913.7758684236 -1.23E-03
    99 OT DIIS     0.80E-01   10.0     0.00003178     -6913.7767378509 -8.69E-04
   100 OT DIIS     0.80E-01   10.2     0.00003277     -6913.7785998325 -1.86E-03

  Leaving inner SCF loop after reaching   100 steps.


  Electronic density on regular grids:      -2432.0000000000       -0.0000000000
  Core density on regular grids:             2431.9999999988       -0.0000000012
  Total charge density on r-space grids:       -0.0000000012
  Total charge density g-space grids:          -0.0000000012

  Overlap energy of the core charge distribution:               0.00001736885999
  Self energy of the core charge distribution:             -16017.19408509233290
  Core Hamiltonian energy:                                   4260.67266447559905
  Hartree energy:                                            6159.62907104074384
  Exchange-correlation energy:                              -1315.19400935238650
  Dispersion energy:                                           -1.69225827302315

  Total energy:                                             -6913.77859983253802

  outer SCF iter =    1 RMS gradient =   0.33E-04 energy =      -6913.7785998325

  ----------------------------------- OT ---------------------------------------
  Minimizer      : DIIS                : direct inversion
                                         in the iterative subspace
                                         using   7 DIIS vectors
                                         safer DIIS on
  Preconditioner : FULL_SINGLE_INVERSE : inversion of 
                                         H + eS - 2*(Sc)(c^T*H*c+const)(Sc)^T
  Precond_solver : DEFAULT
  stepsize       :    0.08000000                  energy_gap     :    0.08000000
  eps_taylor     :   0.10000E-15                  max_taylor     :             4
  ----------------------------------- OT ---------------------------------------

  Step     Update method      Time    Convergence         Total energy    Change
  ------------------------------------------------------------------------------
     1 OT DIIS     0.80E-01   30.1     0.00017361     -6913.7811065240 -2.51E-03
     2 OT DIIS     0.80E-01    9.4     0.00017925     -6913.7908089010 -9.70E-03
     3 OT DIIS     0.80E-01    9.3     0.00020039     -6913.7936934788 -2.88E-03
     4 OT DIIS     0.80E-01    9.6     0.00016499     -6913.7981165789 -4.42E-03
     5 OT DIIS     0.80E-01    9.7     0.00011509     -6913.8037035383 -5.59E-03
     6 OT DIIS     0.80E-01   10.0     0.00010854     -6913.8065300073 -2.83E-03
     7 OT DIIS     0.80E-01   10.0     0.00008669     -6913.8096969859 -3.17E-03
     8 OT DIIS     0.80E-01   10.1     0.00008097     -6913.8123830632 -2.69E-03
     9 OT DIIS     0.80E-01   10.1     0.00007260     -6913.8142101107 -1.83E-03
    10 OT DIIS     0.80E-01   10.0     0.00007041     -6913.8170881737 -2.88E-03
    11 OT DIIS     0.80E-01   10.1     0.00006496     -6913.8197411553 -2.65E-03
    12 OT DIIS     0.80E-01   10.2     0.00006245     -6913.8227072028 -2.97E-03
    13 OT DIIS     0.80E-01   10.1     0.00006045     -6913.8258413422 -3.13E-03
    14 OT DIIS     0.80E-01   10.3     0.00005671     -6913.8284079640 -2.57E-03
    15 OT DIIS     0.80E-01   10.1     0.00005450     -6913.8310184584 -2.61E-03
    16 OT DIIS     0.80E-01    9.8     0.00005311     -6913.8335573740 -2.54E-03
    17 OT DIIS     0.80E-01   10.2     0.00004882     -6913.8356434122 -2.09E-03
    18 OT DIIS     0.80E-01   10.0     0.00004686     -6913.8378666759 -2.22E-03
    19 OT DIIS     0.80E-01    9.9     0.00004524     -6913.8396470137 -1.78E-03
    20 OT DIIS     0.80E-01   10.2     0.00004208     -6913.8411968144 -1.55E-03
    21 OT DIIS     0.80E-01   10.1     0.00004041     -6913.8427187149 -1.52E-03
    22 OT DIIS     0.80E-01   10.2     0.00003976     -6913.8441250585 -1.41E-03
    23 OT DIIS     0.80E-01   10.1     0.00003774     -6913.8455108476 -1.39E-03
    24 OT DIIS     0.80E-01    9.9     0.00003560     -6913.8466868901 -1.18E-03
    25 OT DIIS     0.80E-01   10.0     0.00003456     -6913.8476872519 -1.00E-03
    26 OT DIIS     0.80E-01   10.1     0.00003363     -6913.8488792508 -1.19E-03
    27 OT DIIS     0.80E-01   10.1     0.00003235     -6913.8498360764 -9.57E-04
    28 OT DIIS     0.80E-01   10.1     0.00003182     -6913.8508751657 -1.04E-03
    29 OT DIIS     0.80E-01   10.3     0.00003106     -6913.8519422191 -1.07E-03
    30 OT DIIS     0.80E-01   10.2     0.00002832     -6913.8525884696 -6.46E-04
    31 OT DIIS     0.80E-01   10.0     0.00002855     -6913.8534027870 -8.14E-04
    32 OT DIIS     0.80E-01   10.2     0.00002906     -6913.8543353896 -9.33E-04
    33 OT DIIS     0.80E-01   10.2     0.00002726     -6913.8550946662 -7.59E-04
    34 OT DIIS     0.80E-01    9.9     0.00002599     -6913.8558442135 -7.50E-04
    35 OT DIIS     0.80E-01   10.2     0.00002575     -6913.8564288503 -5.85E-04
    36 OT DIIS     0.80E-01   10.4     0.00002324     -6913.8568888574 -4.60E-04
    37 OT DIIS     0.80E-01   10.1     0.00002452     -6913.8576129778 -7.24E-04
    38 OT DIIS     0.80E-01   10.2     0.00002537     -6913.8581478147 -5.35E-04
    39 OT DIIS     0.80E-01   10.2     0.00002507     -6913.8587657209 -6.18E-04
    40 OT DIIS     0.80E-01   10.4     0.00002162     -6913.8592013393 -4.36E-04
    41 OT DIIS     0.80E-01   10.0     0.00002068     -6913.8595189090 -3.18E-04
    42 OT DIIS     0.80E-01   10.2     0.00002007     -6913.8598765790 -3.58E-04
    43 OT DIIS     0.80E-01   10.2     0.00002177     -6913.8602665419 -3.90E-04
    44 OT DIIS     0.80E-01   10.5     0.00001931     -6913.8605603963 -2.94E-04
    45 OT DIIS     0.80E-01   10.2     0.00002187     -6913.8611056729 -5.45E-04
    46 OT DIIS     0.80E-01   10.3     0.00001882     -6913.8613467732 -2.41E-04
    47 OT DIIS     0.80E-01   10.1     0.00001702     -6913.8616906379 -3.44E-04
    48 OT DIIS     0.80E-01   10.1     0.00001689     -6913.8618502137 -1.60E-04
    49 OT DIIS     0.80E-01   10.2     0.00001993     -6913.8619695277 -1.19E-04
    50 OT DIIS     0.80E-01   10.2     0.00001588     -6913.8622219941 -2.52E-04
    51 OT DIIS     0.80E-01   10.4     0.00001699     -6913.8626514814 -4.29E-04
    52 OT DIIS     0.80E-01   10.1     0.00001537     -6913.8628305741 -1.79E-04
    53 OT DIIS     0.80E-01   10.3     0.00001534     -6913.8632709867 -4.40E-04
    54 OT SD       0.80E-01   10.1     0.00001507     -6913.8634992182 -2.28E-04
    55 OT DIIS     0.80E-01   10.3     0.00003199     -6913.8635425178 -4.33E-05
    56 OT DIIS     0.80E-01   10.5     0.00001499     -6913.8637147413 -1.72E-04
    57 OT DIIS     0.80E-01   10.3     0.00001391     -6913.8638884811 -1.74E-04
    58 OT DIIS     0.80E-01   10.3     0.00001440     -6913.8640314811 -1.43E-04
    59 OT DIIS     0.80E-01   10.2     0.00001287     -6913.8642700952 -2.39E-04
    60 OT DIIS     0.80E-01   10.2     0.00001341     -6913.8644623553 -1.92E-04
    61 OT DIIS     0.80E-01   10.4     0.00001253     -6913.8646795766 -2.17E-04
    62 OT DIIS     0.80E-01   10.2     0.00001290     -6913.8647329253 -5.33E-05
    63 OT DIIS     0.80E-01   10.2     0.00001234     -6913.8650055415 -2.73E-04
    64 OT DIIS     0.80E-01   10.0     0.00001158     -6913.8651619823 -1.56E-04
    65 OT DIIS     0.80E-01   10.2     0.00001062     -6913.8652929546 -1.31E-04
    66 OT DIIS     0.80E-01   10.2     0.00001205     -6913.8654196371 -1.27E-04
    67 OT SD       0.80E-01   10.6     0.00001093     -6913.8656048265 -1.85E-04
    68 OT DIIS     0.80E-01   10.3     0.00002302     -6913.8656260035 -2.12E-05
    69 OT DIIS     0.80E-01   10.2     0.00001048     -6913.8656807374 -5.47E-05
    70 OT DIIS     0.80E-01   10.5     0.00000962     -6913.8658551530 -1.74E-04

  *** SCF run converged in    70 steps ***


  Electronic density on regular grids:      -2432.0000000001       -0.0000000001
  Core density on regular grids:             2431.9999999988       -0.0000000012
  Total charge density on r-space grids:       -0.0000000013
  Total charge density g-space grids:          -0.0000000013

  Overlap energy of the core charge distribution:               0.00001736885999
  Self energy of the core charge distribution:             -16017.19408509233290
  Core Hamiltonian energy:                                   4260.37642266935291
  Hartree energy:                                            6159.80927986478218
  Exchange-correlation energy:                              -1315.16523169068273
  Dispersion energy:                                           -1.69225827302315

  Total energy:                                             -6913.86585515304341

  outer SCF iter =    2 RMS gradient =   0.96E-05 energy =      -6913.8658551530
  outer SCF loop converged in   2 iterations or  170 steps


 ENERGY| Total FORCE_EVAL ( QS ) energy [hartree]          -6913.865955863606359

 MD_INI| MD initialization
 MD_INI| Potential energy [hartree]                          -0.691386595586E+04
 MD_INI| Kinetic energy [hartree]                             0.178407925950E+01
 MD_INI| Temperature [K]                                              973.000000
 MD_INI| Pressure [bar]                                       1.175006211593E+04
 MD_INI| Cell volume [bohr^3]                                 1.308601720879E+05
 MD_INI| Cell volume [ang^3]                                  1.939147658976E+04
 MD_INI| Cell lengths [bohr]      6.16914211E+01  4.40970598E+01  4.81031015E+01
 MD_INI| Cell lengths [ang]       3.26456940E+01  2.33351590E+01  2.54550650E+01
 MD_INI| Cell angles [deg]        9.00000000E+01  9.00000000E+01  9.00000000E+01

 Extrapolation method: ASPC

 Number of electrons:                                                       2432
 Number of occupied orbitals:                                               1216
 Number of molecular orbitals:                                              1216

 Number of orbital functions:                                               4983
 Number of independent orbital functions:                                   4983


 SCF WAVEFUNCTION OPTIMIZATION

  ----------------------------------- OT ---------------------------------------
  Minimizer      : DIIS                : direct inversion
                                         in the iterative subspace
                                         using   7 DIIS vectors
                                         safer DIIS on
  Preconditioner : FULL_SINGLE_INVERSE : inversion of 
                                         H + eS - 2*(Sc)(c^T*H*c+const)(Sc)^T
  Precond_solver : DEFAULT
  stepsize       :    0.08000000                  energy_gap     :    0.08000000
  eps_taylor     :   0.10000E-15                  max_taylor     :             4
  ----------------------------------- OT ---------------------------------------

  Step     Update method      Time    Convergence         Total energy    Change
  ------------------------------------------------------------------------------
     1 OT DIIS     0.80E-01   16.4     0.00006952     -6913.8897085076 -6.91E+03
     2 OT DIIS     0.80E-01   10.3     0.00005747     -6913.8910261682 -1.32E-03
     3 OT DIIS     0.80E-01   10.4     0.00006930     -6913.8913253314 -2.99E-04
     4 OT DIIS     0.80E-01   10.3     0.00006804     -6913.8915677021 -2.42E-04
     5 OT DIIS     0.80E-01   10.5     0.00003876     -6913.8918828792 -3.15E-04
     6 OT DIIS     0.80E-01   10.3     0.00002588     -6913.8920263159 -1.43E-04
     7 OT DIIS     0.80E-01   10.5     0.00001946     -6913.8920869480 -6.06E-05
     8 OT DIIS     0.80E-01   10.2     0.00001387     -6913.8921333126 -4.64E-05
     9 OT DIIS     0.80E-01   10.2     0.00001140     -6913.8921685588 -3.52E-05
    10 OT DIIS     0.80E-01   10.2     0.00001084     -6913.8921992220 -3.07E-05
    11 OT DIIS     0.80E-01   10.5     0.00001031     -6913.8922327813 -3.36E-05
    12 OT DIIS     0.80E-01    9.9     0.00000977     -6913.8922725182 -3.97E-05

  *** SCF run converged in    12 steps ***


  Electronic density on regular grids:      -2431.9999999999        0.0000000001
  Core density on regular grids:             2431.9999999988       -0.0000000012
  Total charge density on r-space grids:       -0.0000000011
  Total charge density g-space grids:          -0.0000000011

  Overlap energy of the core charge distribution:               0.00001611211014
  Self energy of the core charge distribution:             -16017.19408509233290
  Core Hamiltonian energy:                                   4260.28208804739006
  Hartree energy:                                            6159.85799745463191
  Exchange-correlation energy:                              -1315.14602494060182
  Dispersion energy:                                           -1.69226409937471

  Total energy:                                             -6913.89227251817738

  outer SCF iter =    1 RMS gradient =   0.98E-05 energy =      -6913.8922725182
  outer SCF loop converged in   1 iterations or   12 steps


 ENERGY| Total FORCE_EVAL ( QS ) energy [hartree]          -6913.892306410151832

 MD| ***************************************************************************
 MD| Step number                                                               1
 MD| Time [fs]                                                          0.250000
 MD| Conserved quantity [hartree]                            -0.691208249458E+04
 MD| ---------------------------------------------------------------------------
 MD|                                          Instantaneous             Averages
 MD| CPU time per MD step [s]                   1946.854841          1946.854841
 MD| Energy drift per atom [K]          -0.504236797597E+00   0.000000000000E+00
 MD| Potential energy [hartree]         -0.691389230641E+04  -0.691389230641E+04
 MD| Kinetic energy [hartree]            0.181741754027E+01   0.181741754027E+01
 MD| Temperature [K]                             991.182010           991.182010
 MD| Pressure [bar]                      1.169876138580E+04   1.169876138580E+04
 MD| ***************************************************************************
 MD| Estimated peak process memory after this step [MiB]                   17515

 Extrapolation method: ASPC

 Number of electrons:                                                       2432
 Number of occupied orbitals:                                               1216
 Number of molecular orbitals:                                              1216

 Number of orbital functions:                                               4983
 Number of independent orbital functions:                                   4983


 SCF WAVEFUNCTION OPTIMIZATION

  ----------------------------------- OT ---------------------------------------
  Minimizer      : DIIS                : direct inversion
                                         in the iterative subspace
                                         using   7 DIIS vectors
                                         safer DIIS on
  Preconditioner : FULL_SINGLE_INVERSE : inversion of 
                                         H + eS - 2*(Sc)(c^T*H*c+const)(Sc)^T
  Precond_solver : DEFAULT
  stepsize       :    0.08000000                  energy_gap     :    0.08000000
  eps_taylor     :   0.10000E-15                  max_taylor     :             4
  ----------------------------------- OT ---------------------------------------

  Step     Update method      Time    Convergence         Total energy    Change
  ------------------------------------------------------------------------------
     1 OT DIIS     0.80E-01   15.9     0.00002534     -6913.9428705842 -6.91E+03
     2 OT DIIS     0.80E-01    9.9     0.00007576     -6913.9427965799  7.40E-05
     3 OT DIIS     0.80E-01   10.1     0.00002010     -6913.9430214025 -2.25E-04
     4 OT DIIS     0.80E-01   10.3     0.00001892     -6913.9430637131 -4.23E-05
     5 OT DIIS     0.80E-01   10.1     0.00001603     -6913.9430994584 -3.57E-05
     6 OT DIIS     0.80E-01   10.2     0.00001067     -6913.9431371542 -3.77E-05
     7 OT DIIS     0.80E-01   10.0     0.00000946     -6913.9431636124 -2.65E-05

  *** SCF run converged in     7 steps ***


  Electronic density on regular grids:      -2431.9999999995        0.0000000005
  Core density on regular grids:             2431.9999999988       -0.0000000012
  Total charge density on r-space grids:       -0.0000000007
  Total charge density g-space grids:          -0.0000000007

  Overlap energy of the core charge distribution:               0.00001409013115
  Self energy of the core charge distribution:             -16017.19408509233290
  Core Hamiltonian energy:                                   4260.14122651462731
  Hartree energy:                                            6159.92322296388647
  Exchange-correlation energy:                              -1315.12131710962444
  Dispersion energy:                                           -1.69222497907185

  Total energy:                                             -6913.94316361238361

  outer SCF iter =    1 RMS gradient =   0.95E-05 energy =      -6913.9431636124
  outer SCF loop converged in   1 iterations or    7 steps


 ENERGY| Total FORCE_EVAL ( QS ) energy [hartree]          -6913.943188629809811

 MD| ***************************************************************************
 MD| Step number                                                               2
 MD| Time [fs]                                                          0.500000
 MD| Conserved quantity [hartree]                            -0.691208337584E+04
 MD| ---------------------------------------------------------------------------
 MD|                                          Instantaneous             Averages
 MD| CPU time per MD step [s]                    108.986176          1027.920509
 MD| Energy drift per atom [K]          -0.122331060171E+01  -0.611655300855E+00
 MD| Potential energy [hartree]         -0.691394318863E+04  -0.691391774752E+04
 MD| Kinetic energy [hartree]            0.190501278461E+01   0.186121516244E+01
 MD| Temperature [K]                            1038.954648          1015.068329
 MD| Pressure [bar]                      1.165461996394E+04   1.167669067487E+04
 MD| ***************************************************************************
 MD| Estimated peak process memory after this step [MiB]                   17515

 Extrapolation method: ASPC

 Number of electrons:                                                       2432
 Number of occupied orbitals:                                               1216
 Number of molecular orbitals:                                              1216

 Number of orbital functions:                                               4983
 Number of independent orbital functions:                                   4983


 SCF WAVEFUNCTION OPTIMIZATION

  ----------------------------------- OT ---------------------------------------
  Minimizer      : DIIS                : direct inversion
                                         in the iterative subspace
                                         using   7 DIIS vectors
                                         safer DIIS on
  Preconditioner : FULL_SINGLE_INVERSE : inversion of 
                                         H + eS - 2*(Sc)(c^T*H*c+const)(Sc)^T
  Precond_solver : DEFAULT
  stepsize       :    0.08000000                  energy_gap     :    0.08000000
  eps_taylor     :   0.10000E-15                  max_taylor     :             4
  ----------------------------------- OT ---------------------------------------

  Step     Update method      Time    Convergence         Total energy    Change
  ------------------------------------------------------------------------------
     1 OT DIIS     0.80E-01   15.4     0.00002142     -6914.0116773590 -6.91E+03
     2 OT DIIS     0.80E-01   10.1     0.00008571     -6914.0114455256  2.32E-04
     3 OT DIIS     0.80E-01    9.8     0.00001481     -6914.0117422692 -2.97E-04
     4 OT DIIS     0.80E-01    9.9     0.00001207     -6914.0117593278 -1.71E-05
     5 OT DIIS     0.80E-01    9.8     0.00001054     -6914.0117813931 -2.21E-05
     6 OT DIIS     0.80E-01   10.2     0.00000833     -6914.0118131012 -3.17E-05

  *** SCF run converged in     6 steps ***


  Electronic density on regular grids:      -2431.9999999993        0.0000000007
  Core density on regular grids:             2431.9999999988       -0.0000000012
  Total charge density on r-space grids:       -0.0000000005
  Total charge density g-space grids:          -0.0000000004

  Overlap energy of the core charge distribution:               0.00001218184839
  Self energy of the core charge distribution:             -16017.19408509233290
  Core Hamiltonian energy:                                   4259.96629838418994
  Hartree energy:                                            6160.00096186197516
  Exchange-correlation energy:                              -1315.09285722868663
  Dispersion energy:                                           -1.69214320823644

  Total energy:                                             -6914.01181310124230

  outer SCF iter =    1 RMS gradient =   0.83E-05 energy =      -6914.0118131012
  outer SCF loop converged in   1 iterations or    6 steps


 ENERGY| Total FORCE_EVAL ( QS ) energy [hartree]          -6914.011840882261822

 MD| ***************************************************************************
 MD| Step number                                                               3
 MD| Time [fs]                                                          0.750000
 MD| Conserved quantity [hartree]                            -0.691208442030E+04
 MD| ---------------------------------------------------------------------------
 MD|                                          Instantaneous             Averages
 MD| CPU time per MD step [s]                     97.604286           717.815101
 MD| Energy drift per atom [K]          -0.207554351241E+01  -0.109961803804E+01
 MD| Potential energy [hartree]         -0.691401184088E+04  -0.691394911197E+04
 MD| Kinetic energy [hartree]            0.196318791645E+01   0.189520608044E+01
 MD| Temperature [K]                            1070.682164          1033.606274
 MD| Pressure [bar]                      1.151333717345E+04   1.162223950773E+04
 MD| ***************************************************************************
 MD| Estimated peak process memory after this step [MiB]                   17515

 Extrapolation method: ASPC

 Number of electrons:                                                       2432
 Number of occupied orbitals:                                               1216
 Number of molecular orbitals:                                              1216

 Number of orbital functions:                                               4983
 Number of independent orbital functions:                                   4983


 SCF WAVEFUNCTION OPTIMIZATION

  ----------------------------------- OT ---------------------------------------
  Minimizer      : DIIS                : direct inversion
                                         in the iterative subspace
                                         using   7 DIIS vectors
                                         safer DIIS on
  Preconditioner : FULL_SINGLE_INVERSE : inversion of 
                                         H + eS - 2*(Sc)(c^T*H*c+const)(Sc)^T
  Precond_solver : DEFAULT
  stepsize       :    0.08000000                  energy_gap     :    0.08000000
  eps_taylor     :   0.10000E-15                  max_taylor     :             4
  ----------------------------------- OT ---------------------------------------

  Step     Update method      Time    Convergence         Total energy    Change
  ------------------------------------------------------------------------------
     1 OT DIIS     0.80E-01   16.0     0.00002143     -6914.0908780032 -6.91E+03
     2 OT DIIS     0.80E-01   10.1     0.00008413     -6914.0906352568  2.43E-04
     3 OT DIIS     0.80E-01   10.0     0.00001526     -6914.0909280181 -2.93E-04
     4 OT DIIS     0.80E-01    9.8     0.00001120     -6914.0909427207 -1.47E-05
     5 OT DIIS     0.80E-01   10.2     0.00000847     -6914.0909565201 -1.38E-05

  *** SCF run converged in     5 steps ***


  Electronic density on regular grids:      -2431.9999999995        0.0000000005
  Core density on regular grids:             2431.9999999988       -0.0000000012
  Total charge density on r-space grids:       -0.0000000006
  Total charge density g-space grids:          -0.0000000006

  Overlap energy of the core charge distribution:               0.00001086661612
  Self energy of the core charge distribution:             -16017.19408509233290
  Core Hamiltonian energy:                                   4259.77235650585408
  Hartree energy:                                            6160.08534238242828
  Exchange-correlation energy:                              -1315.06256154806624
  Dispersion energy:                                           -1.69201963457303

  Total energy:                                             -6914.09095652007272

  outer SCF iter =    1 RMS gradient =   0.85E-05 energy =      -6914.0909565201
  outer SCF loop converged in   1 iterations or    5 steps


 ENERGY| Total FORCE_EVAL ( QS ) energy [hartree]          -6914.090971020594225

 MD| ***************************************************************************
 MD| Step number                                                               4
 MD| Time [fs]                                                          1.000000
 MD| Conserved quantity [hartree]                            -0.691208544149E+04
 MD| ---------------------------------------------------------------------------
 MD|                                          Instantaneous             Averages
 MD| CPU time per MD step [s]                     89.432495           560.719450
 MD| Energy drift per atom [K]          -0.290879005079E+01  -0.155191104123E+01
 MD| Potential energy [hartree]         -0.691409097102E+04  -0.691398457674E+04
 MD| Kinetic energy [hartree]            0.204083012058E+01   0.193161209048E+01
 MD| Temperature [K]                            1113.026620          1053.461361
 MD| Pressure [bar]                      1.137131782191E+04   1.155950908628E+04
 MD| ***************************************************************************
 MD| Estimated peak process memory after this step [MiB]                   17515

 Extrapolation method: ASPC

 Number of electrons:                                                       2432
 Number of occupied orbitals:                                               1216
 Number of molecular orbitals:                                              1216

 Number of orbital functions:                                               4983
 Number of independent orbital functions:                                   4983


 SCF WAVEFUNCTION OPTIMIZATION

  ----------------------------------- OT ---------------------------------------
  Minimizer      : DIIS                : direct inversion
                                         in the iterative subspace
                                         using   7 DIIS vectors
                                         safer DIIS on
  Preconditioner : FULL_SINGLE_INVERSE : inversion of 
                                         H + eS - 2*(Sc)(c^T*H*c+const)(Sc)^T
  Precond_solver : DEFAULT
  stepsize       :    0.08000000                  energy_gap     :    0.08000000
  eps_taylor     :   0.10000E-15                  max_taylor     :             4
  ----------------------------------- OT ---------------------------------------

  Step     Update method      Time    Convergence         Total energy    Change
  ------------------------------------------------------------------------------
     1 OT DIIS     0.80E-01   16.3     0.00002255     -6914.1728198054 -6.91E+03
     2 OT DIIS     0.80E-01   10.1     0.00007430     -6914.1726481582  1.72E-04
     3 OT DIIS     0.80E-01    9.9     0.00002371     -6914.1728718837 -2.24E-04
     4 OT DIIS     0.80E-01   10.1     0.00001029     -6914.1729033126 -3.14E-05
     5 OT DIIS     0.80E-01   10.0     0.00000908     -6914.1729183310 -1.50E-05

  *** SCF run converged in     5 steps ***


  Electronic density on regular grids:      -2432.0000000001       -0.0000000001
  Core density on regular grids:             2431.9999999988       -0.0000000012
  Total charge density on r-space grids:       -0.0000000013
  Total charge density g-space grids:          -0.0000000013

  Overlap energy of the core charge distribution:               0.00001016574554
  Self energy of the core charge distribution:             -16017.19408509233290
  Core Hamiltonian energy:                                   4259.56613283398747
  Hartree energy:                                            6160.17706302862916
  Exchange-correlation energy:                              -1315.03018391152318
  Dispersion energy:                                           -1.69185535546113

  Total energy:                                             -6914.17291833095533

  outer SCF iter =    1 RMS gradient =   0.91E-05 energy =      -6914.1729183310
  outer SCF loop converged in   1 iterations or    5 steps


 ENERGY| Total FORCE_EVAL ( QS ) energy [hartree]          -6914.172937228066985

 MD| ***************************************************************************
 MD| Step number                                                               5
 MD| Time [fs]                                                          1.250000
 MD| Conserved quantity [hartree]                            -0.691208626863E+04
 MD| ---------------------------------------------------------------------------
 MD|                                          Instantaneous             Averages
 MD| CPU time per MD step [s]                     90.117916           466.599143
 MD| Energy drift per atom [K]          -0.358369230917E+01  -0.195826729481E+01
 MD| Potential energy [hartree]         -0.691417293723E+04  -0.691402224883E+04
 MD| Kinetic energy [hartree]            0.206831809117E+01   0.195895329062E+01
 MD| Temperature [K]                            1128.017991          1068.372687
 MD| Pressure [bar]                      1.114909083430E+04   1.147742543588E+04
 MD| ***************************************************************************
 MD| Estimated peak process memory after this step [MiB]                   17546

 Extrapolation method: ASPC

 Number of electrons:                                                       2432
 Number of occupied orbitals:                                               1216
 Number of molecular orbitals:                                              1216

 Number of orbital functions:                                               4983
 Number of independent orbital functions:                                   4983


 SCF WAVEFUNCTION OPTIMIZATION

  ----------------------------------- OT ---------------------------------------
  Minimizer      : DIIS                : direct inversion
                                         in the iterative subspace
                                         using   7 DIIS vectors
                                         safer DIIS on
  Preconditioner : FULL_SINGLE_INVERSE : inversion of 
                                         H + eS - 2*(Sc)(c^T*H*c+const)(Sc)^T
  Precond_solver : DEFAULT
  stepsize       :    0.08000000                  energy_gap     :    0.08000000
  eps_taylor     :   0.10000E-15                  max_taylor     :             4
  ----------------------------------- OT ---------------------------------------

  Step     Update method      Time    Convergence         Total energy    Change
  ------------------------------------------------------------------------------
     1 OT DIIS     0.80E-01   17.3     0.00003114     -6914.2518777775 -6.91E+03
     2 OT DIIS     0.80E-01   10.3     0.00011516     -6914.2513920790  4.86E-04
     3 OT DIIS     0.80E-01   10.1     0.00002788     -6914.2519609522 -5.69E-04
     4 OT DIIS     0.80E-01   10.1     0.00001325     -6914.2520006031 -3.97E-05
     5 OT DIIS     0.80E-01   10.4     0.00001154     -6914.2520247045 -2.41E-05
     6 OT DIIS     0.80E-01   10.4     0.00001006     -6914.2520495234 -2.48E-05
     7 OT DIIS     0.80E-01   10.5     0.00000940     -6914.2521104438 -6.09E-05

  *** SCF run converged in     7 steps ***


  Electronic density on regular grids:      -2432.0000000011       -0.0000000011
  Core density on regular grids:             2431.9999999988       -0.0000000012
  Total charge density on r-space grids:       -0.0000000022
  Total charge density g-space grids:          -0.0000000022

  Overlap energy of the core charge distribution:               0.00000986878205
  Self energy of the core charge distribution:             -16017.19408509233290
  Core Hamiltonian energy:                                   4259.36252837235133
  Hartree energy:                                            6160.26898737827560
  Exchange-correlation energy:                              -1314.99789358569205
  Dispersion energy:                                           -1.69165738522896

  Total energy:                                             -6914.25211044384560

  outer SCF iter =    1 RMS gradient =   0.94E-05 energy =      -6914.2521104438
  outer SCF loop converged in   1 iterations or    7 steps


 ENERGY| Total FORCE_EVAL ( QS ) energy [hartree]          -6914.252160175576137

 MD| ***************************************************************************
 MD| Step number                                                               6
 MD| Time [fs]                                                          1.500000
 MD| Conserved quantity [hartree]                            -0.691208690451E+04
 MD| ---------------------------------------------------------------------------
 MD|                                          Instantaneous             Averages
 MD| CPU time per MD step [s]                    112.953699           407.658236
 MD| Energy drift per atom [K]          -0.410254515813E+01  -0.231564693870E+01
 MD| Potential energy [hartree]         -0.691425216018E+04  -0.691406056739E+04
 MD| Kinetic energy [hartree]            0.212781493662E+01   0.198709689828E+01
 MD| Temperature [K]                            1160.466343          1083.721629
 MD| Pressure [bar]                      1.098788092687E+04   1.139583468438E+04
 MD| ***************************************************************************
 MD| Estimated peak process memory after this step [MiB]                   17546

 Extrapolation method: ASPC

 Number of electrons:                                                       2432
 Number of occupied orbitals:                                               1216
 Number of molecular orbitals:                                              1216

 Number of orbital functions:                                               4983
 Number of independent orbital functions:                                   4983


 SCF WAVEFUNCTION OPTIMIZATION

  ----------------------------------- OT ---------------------------------------
  Minimizer      : DIIS                : direct inversion
                                         in the iterative subspace
                                         using   7 DIIS vectors
                                         safer DIIS on
  Preconditioner : FULL_SINGLE_INVERSE : inversion of 
                                         H + eS - 2*(Sc)(c^T*H*c+const)(Sc)^T
  Precond_solver : DEFAULT
  stepsize       :    0.08000000                  energy_gap     :    0.08000000
  eps_taylor     :   0.10000E-15                  max_taylor     :             4
  ----------------------------------- OT ---------------------------------------

  Step     Update method      Time    Convergence         Total energy    Change
  ------------------------------------------------------------------------------
     1 OT DIIS     0.80E-01   15.1     0.00003800     -6914.3245352911 -6.91E+03
     2 OT DIIS     0.80E-01   10.1     0.00014429     -6914.3237252510  8.10E-04
     3 OT DIIS     0.80E-01    9.9     0.00003264     -6914.3246101356 -8.85E-04
     4 OT DIIS     0.80E-01   10.1     0.00001513     -6914.3246600275 -4.99E-05
     5 OT DIIS     0.80E-01   10.0     0.00001007     -6914.3246741098 -1.41E-05
     6 OT DIIS     0.80E-01   10.0     0.00000722     -6914.3246880490 -1.39E-05

  *** SCF run converged in     6 steps ***


  Electronic density on regular grids:      -2432.0000000020       -0.0000000020
  Core density on regular grids:             2431.9999999988       -0.0000000012
  Total charge density on r-space grids:       -0.0000000031
  Total charge density g-space grids:          -0.0000000031

  Overlap energy of the core charge distribution:               0.00000977618275
  Self energy of the core charge distribution:             -16017.19408509233290
  Core Hamiltonian energy:                                   4259.17168209412375
  Hartree energy:                                            6160.35614706130673
  Exchange-correlation energy:                              -1314.96700612119025
  Dispersion energy:                                           -1.69143576709152

  Total energy:                                             -6914.32468804900145

  outer SCF iter =    1 RMS gradient =   0.72E-05 energy =      -6914.3246880490
  outer SCF loop converged in   1 iterations or    6 steps


 ENERGY| Total FORCE_EVAL ( QS ) energy [hartree]          -6914.324703699258862

 MD| ***************************************************************************
 MD| Step number                                                               7
 MD| Time [fs]                                                          1.750000
 MD| Conserved quantity [hartree]                            -0.691208735654E+04
 MD| ---------------------------------------------------------------------------
 MD|                                          Instantaneous             Averages
 MD| CPU time per MD step [s]                     99.142820           363.584605
 MD| Energy drift per atom [K]          -0.447138238835E+01  -0.262360914579E+01
 MD| Potential energy [hartree]         -0.691432470370E+04  -0.691409830115E+04
 MD| Kinetic energy [hartree]            0.207508933935E+01   0.199966724701E+01
 MD| Temperature [K]                            1131.710890          1090.577238
 MD| Pressure [bar]                      1.068353468632E+04   1.129407754180E+04
 MD| ***************************************************************************
 MD| Estimated peak process memory after this step [MiB]                   17574

 Extrapolation method: ASPC

 Number of electrons:                                                       2432
 Number of occupied orbitals:                                               1216
 Number of molecular orbitals:                                              1216

 Number of orbital functions:                                               4983
 Number of independent orbital functions:                                   4983


 SCF WAVEFUNCTION OPTIMIZATION

  ----------------------------------- OT ---------------------------------------
  Minimizer      : DIIS                : direct inversion
                                         in the iterative subspace
                                         using   7 DIIS vectors
                                         safer DIIS on
  Preconditioner : FULL_SINGLE_INVERSE : inversion of 
                                         H + eS - 2*(Sc)(c^T*H*c+const)(Sc)^T
  Precond_solver : DEFAULT
  stepsize       :    0.08000000                  energy_gap     :    0.08000000
  eps_taylor     :   0.10000E-15                  max_taylor     :             4
  ----------------------------------- OT ---------------------------------------

  Step     Update method      Time    Convergence         Total energy    Change
  ------------------------------------------------------------------------------
     1 OT DIIS     0.80E-01   15.9     0.00004157     -6914.3882322142 -6.91E+03
     2 OT DIIS     0.80E-01   10.0     0.00014805     -6914.3874585283  7.74E-04
     3 OT DIIS     0.80E-01   10.0     0.00003516     -6914.3883727138 -9.14E-04
     4 OT DIIS     0.80E-01    9.9     0.00002007     -6914.3884369896 -6.43E-05
     5 OT DIIS     0.80E-01   10.0     0.00001307     -6914.3884651567 -2.82E-05
     6 OT DIIS     0.80E-01   10.2     0.00001229     -6914.3884932515 -2.81E-05
     7 OT DIIS     0.80E-01   10.1     0.00001050     -6914.3885308527 -3.76E-05
     8 OT DIIS     0.80E-01   10.1     0.00000980     -6914.3885669622 -3.61E-05

  *** SCF run converged in     8 steps ***


  Electronic density on regular grids:      -2432.0000000029       -0.0000000029
  Core density on regular grids:             2431.9999999988       -0.0000000012
  Total charge density on r-space grids:       -0.0000000040
  Total charge density g-space grids:          -0.0000000040

  Overlap energy of the core charge distribution:               0.00000977184974
  Self energy of the core charge distribution:             -16017.19408509233290
  Core Hamiltonian energy:                                   4258.99496497629480
  Hartree energy:                                            6160.43966283303780
  Exchange-correlation energy:                              -1314.93792379018510
  Dispersion energy:                                           -1.69119566091281

  Total energy:                                             -6914.38856696224866

  outer SCF iter =    1 RMS gradient =   0.98E-05 energy =      -6914.3885669622
  outer SCF loop converged in   1 iterations or    8 steps


 ENERGY| Total FORCE_EVAL ( QS ) energy [hartree]          -6914.388583538488092

 MD| ***************************************************************************
 MD| Step number                                                               8
 MD| Time [fs]                                                          2.000000
 MD| Conserved quantity [hartree]                            -0.691208762462E+04
 MD| ---------------------------------------------------------------------------
 MD|                                          Instantaneous             Averages
 MD| CPU time per MD step [s]                    120.149122           333.155170
 MD| Energy drift per atom [K]          -0.469012179515E+01  -0.288192322696E+01
 MD| Potential energy [hartree]         -0.691438858354E+04  -0.691413458645E+04
 MD| Kinetic energy [hartree]            0.201824450552E+01   0.200198940432E+01
 MD| Temperature [K]                            1100.708891          1091.843695
 MD| Pressure [bar]                      1.040268073923E+04   1.118265294148E+04
 MD| ***************************************************************************
 MD| Estimated peak process memory after this step [MiB]                   17574

 Extrapolation method: ASPC

 Number of electrons:                                                       2432
 Number of occupied orbitals:                                               1216
 Number of molecular orbitals:                                              1216

 Number of orbital functions:                                               4983
 Number of independent orbital functions:                                   4983


 SCF WAVEFUNCTION OPTIMIZATION

  ----------------------------------- OT ---------------------------------------
  Minimizer      : DIIS                : direct inversion
                                         in the iterative subspace
                                         using   7 DIIS vectors
                                         safer DIIS on
  Preconditioner : FULL_SINGLE_INVERSE : inversion of 
                                         H + eS - 2*(Sc)(c^T*H*c+const)(Sc)^T
  Precond_solver : DEFAULT
  stepsize       :    0.08000000                  energy_gap     :    0.08000000
  eps_taylor     :   0.10000E-15                  max_taylor     :             4
  ----------------------------------- OT ---------------------------------------

  Step     Update method      Time    Convergence         Total energy    Change
  ------------------------------------------------------------------------------
     1 OT DIIS     0.80E-01   16.3     0.00004085     -6914.4432650299 -6.91E+03
     2 OT DIIS     0.80E-01   10.0     0.00014777     -6914.4424447827  8.20E-04
     3 OT DIIS     0.80E-01    9.9     0.00004197     -6914.4433393862 -8.95E-04
     4 OT DIIS     0.80E-01    9.8     0.00001109     -6914.4434357191 -9.63E-05
     5 OT DIIS     0.80E-01   10.2     0.00001182     -6914.4434523037 -1.66E-05
     6 OT DIIS     0.80E-01   10.0     0.00000999     -6914.4434744052 -2.21E-05

  *** SCF run converged in     6 steps ***


  Electronic density on regular grids:      -2432.0000000039       -0.0000000039
  Core density on regular grids:             2431.9999999988       -0.0000000012
  Total charge density on r-space grids:       -0.0000000050
  Total charge density g-space grids:          -0.0000000050

  Overlap energy of the core charge distribution:               0.00000980910581
  Self energy of the core charge distribution:             -16017.19408509233290
  Core Hamiltonian energy:                                   4258.84008520066527
  Hartree energy:                                            6160.51336786463708
  Exchange-correlation energy:                              -1314.91191085070295
  Dispersion energy:                                           -1.69094133656292

  Total energy:                                             -6914.44347440519050

  outer SCF iter =    1 RMS gradient =   0.10E-04 energy =      -6914.4434744052
  outer SCF loop converged in   1 iterations or    6 steps


 ENERGY| Total FORCE_EVAL ( QS ) energy [hartree]          -6914.443507560526086

 MD| ***************************************************************************
 MD| Step number                                                               9
 MD| Time [fs]                                                          2.250000
 MD| Conserved quantity [hartree]                            -0.691208772465E+04
 MD| ---------------------------------------------------------------------------
 MD|                                          Instantaneous             Averages
 MD| CPU time per MD step [s]                     99.327930           307.174365
 MD| Energy drift per atom [K]          -0.477174662108E+01  -0.309190360409E+01
 MD| Potential energy [hartree]         -0.691444350756E+04  -0.691416891102E+04
 MD| Kinetic energy [hartree]            0.196113076108E+01   0.199744955507E+01
 MD| Temperature [K]                            1069.560234          1089.367755
 MD| Pressure [bar]                      1.015212439047E+04   1.106814976914E+04
 MD| ***************************************************************************
 MD| Estimated peak process memory after this step [MiB]                   17574

 Extrapolation method: ASPC

 Number of electrons:                                                       2432
 Number of occupied orbitals:                                               1216
 Number of molecular orbitals:                                              1216

 Number of orbital functions:                                               4983
 Number of independent orbital functions:                                   4983


 SCF WAVEFUNCTION OPTIMIZATION

  ----------------------------------- OT ---------------------------------------
  Minimizer      : DIIS                : direct inversion
                                         in the iterative subspace
                                         using   7 DIIS vectors
                                         safer DIIS on
  Preconditioner : FULL_SINGLE_INVERSE : inversion of 
                                         H + eS - 2*(Sc)(c^T*H*c+const)(Sc)^T
  Precond_solver : DEFAULT
  stepsize       :    0.08000000                  energy_gap     :    0.08000000
  eps_taylor     :   0.10000E-15                  max_taylor     :             4
  ----------------------------------- OT ---------------------------------------

  Step     Update method      Time    Convergence         Total energy    Change
  ------------------------------------------------------------------------------
     1 OT DIIS     0.80E-01   15.9     0.00004192     -6914.4904030418 -6.91E+03
     2 OT DIIS     0.80E-01   10.0     0.00014020     -6914.4896668460  7.36E-04
     3 OT DIIS     0.80E-01    9.9     0.00003994     -6914.4905330821 -8.66E-04
     4 OT DIIS     0.80E-01    9.9     0.00001921     -6914.4906049305 -7.18E-05
     5 OT DIIS     0.80E-01    9.7     0.00001174     -6914.4906401717 -3.52E-05
     6 OT DIIS     0.80E-01    9.9     0.00001249     -6914.4906648917 -2.47E-05
     7 OT DIIS     0.80E-01   10.0     0.00001119     -6914.4907134153 -4.85E-05
     8 OT DIIS     0.80E-01   10.0     0.00000939     -6914.4907677999 -5.44E-05

  *** SCF run converged in     8 steps ***


  Electronic density on regular grids:      -2432.0000000046       -0.0000000046
  Core density on regular grids:             2431.9999999988       -0.0000000012
  Total charge density on r-space grids:       -0.0000000057
  Total charge density g-space grids:          -0.0000000057

  Overlap energy of the core charge distribution:               0.00000988218926
  Self energy of the core charge distribution:             -16017.19408509233290
  Core Hamiltonian energy:                                   4258.69936645787129
  Hartree energy:                                            6160.58305810507227
  Exchange-correlation energy:                              -1314.88844105711360
  Dispersion energy:                                           -1.69067609563170

  Total energy:                                             -6914.49076779994539

  outer SCF iter =    1 RMS gradient =   0.94E-05 energy =      -6914.4907677999
  outer SCF loop converged in   1 iterations or    8 steps


 ENERGY| Total FORCE_EVAL ( QS ) energy [hartree]          -6914.490792571549719

 MD| ***************************************************************************
 MD| Step number                                                              10
 MD| Time [fs]                                                          2.500000
 MD| Conserved quantity [hartree]                            -0.691208773630E+04
 MD| ---------------------------------------------------------------------------
 MD|                                          Instantaneous             Averages
 MD| CPU time per MD step [s]                    118.495696           288.306498
 MD| Energy drift per atom [K]          -0.478125035369E+01  -0.326083827905E+01
 MD| Potential energy [hartree]         -0.691449079257E+04  -0.691420109917E+04
 MD| Kinetic energy [hartree]            0.202076990498E+01   0.199978159006E+01
 MD| Temperature [K]                            1102.086192          1090.639598
 MD| Pressure [bar]                      1.010066499111E+04   1.097140129134E+04
 MD| ***************************************************************************
 MD| Estimated peak process memory after this step [MiB]                   17577

 Extrapolation method: ASPC

 Number of electrons:                                                       2432
 Number of occupied orbitals:                                               1216
 Number of molecular orbitals:                                              1216

 Number of orbital functions:                                               4983
 Number of independent orbital functions:                                   4983


 SCF WAVEFUNCTION OPTIMIZATION

  ----------------------------------- OT ---------------------------------------
  Minimizer      : DIIS                : direct inversion
                                         in the iterative subspace
                                         using   7 DIIS vectors
                                         safer DIIS on
  Preconditioner : FULL_SINGLE_INVERSE : inversion of 
                                         H + eS - 2*(Sc)(c^T*H*c+const)(Sc)^T
  Precond_solver : DEFAULT
  stepsize       :    0.08000000                  energy_gap     :    0.08000000
  eps_taylor     :   0.10000E-15                  max_taylor     :             4
  ----------------------------------- OT ---------------------------------------

  Step     Update method      Time    Convergence         Total energy    Change
  ------------------------------------------------------------------------------
     1 OT DIIS     0.80E-01   15.6     0.00003834     -6914.5313288227 -6.91E+03
     2 OT DIIS     0.80E-01   10.0     0.00013801     -6914.5305993716  7.29E-04
     3 OT DIIS     0.80E-01    9.8     0.00003913     -6914.5313999746 -8.01E-04
     4 OT DIIS     0.80E-01   10.2     0.00001210     -6914.5314815520 -8.16E-05
     5 OT DIIS     0.80E-01   10.1     0.00001098     -6914.5314974907 -1.59E-05
     6 OT DIIS     0.80E-01    9.8     0.00000958     -6914.5315258644 -2.84E-05

  *** SCF run converged in     6 steps ***


  Electronic density on regular grids:      -2432.0000000045       -0.0000000045
  Core density on regular grids:             2431.9999999988       -0.0000000012
  Total charge density on r-space grids:       -0.0000000057
  Total charge density g-space grids:          -0.0000000057

  Overlap energy of the core charge distribution:               0.00001000596217
  Self energy of the core charge distribution:             -16017.19408509233290
  Core Hamiltonian energy:                                   4258.57301442088738
  Hartree energy:                                            6160.64688087894319
  Exchange-correlation energy:                              -1314.86694220369304
  Dispersion energy:                                           -1.69040387414570

  Total energy:                                             -6914.53152586437773

  outer SCF iter =    1 RMS gradient =   0.96E-05 energy =      -6914.5315258644
  outer SCF loop converged in   1 iterations or    6 steps


 ENERGY| Total FORCE_EVAL ( QS ) energy [hartree]          -6914.531569033782034

 MD| ***************************************************************************
 MD| Step number                                                              11
 MD| Time [fs]                                                          2.750000
 MD| Conserved quantity [hartree]                            -0.691208768623E+04
 MD| ---------------------------------------------------------------------------
 MD|                                          Instantaneous             Averages
 MD| CPU time per MD step [s]                     98.175630           271.021874
 MD| Energy drift per atom [K]          -0.474039665138E+01  -0.339534358562E+01
 MD| Potential energy [hartree]         -0.691453156903E+04  -0.691423114189E+04
 MD| Kinetic energy [hartree]            0.206365172670E+01   0.200558796612E+01
 MD| Temperature [K]                            1125.473052          1093.806276
 MD| Pressure [bar]                      1.004266238952E+04   1.088697048208E+04
 MD| ***************************************************************************
 MD| Estimated peak process memory after this step [MiB]                   17577

 Extrapolation method: ASPC

 Number of electrons:                                                       2432
 Number of occupied orbitals:                                               1216
 Number of molecular orbitals:                                              1216

 Number of orbital functions:                                               4983
 Number of independent orbital functions:                                   4983


 SCF WAVEFUNCTION OPTIMIZATION

  ----------------------------------- OT ---------------------------------------
  Minimizer      : DIIS                : direct inversion
                                         in the iterative subspace
                                         using   7 DIIS vectors
                                         safer DIIS on
  Preconditioner : FULL_SINGLE_INVERSE : inversion of 
                                         H + eS - 2*(Sc)(c^T*H*c+const)(Sc)^T
  Precond_solver : DEFAULT
  stepsize       :    0.08000000                  energy_gap     :    0.08000000
  eps_taylor     :   0.10000E-15                  max_taylor     :             4
  ----------------------------------- OT ---------------------------------------

  Step     Update method      Time    Convergence         Total energy    Change
  ------------------------------------------------------------------------------
     1 OT DIIS     0.80E-01   15.6     0.00003863     -6914.5659853960 -6.91E+03
     2 OT DIIS     0.80E-01   10.2     0.00014516     -6914.5652213088  7.64E-04
     3 OT DIIS     0.80E-01   10.0     0.00003150     -6914.5661002149 -8.79E-04
     4 OT DIIS     0.80E-01    9.8     0.00001679     -6914.5661541268 -5.39E-05
     5 OT DIIS     0.80E-01   10.1     0.00001261     -6914.5661802001 -2.61E-05
[...]
    37 OT DIIS     0.80E-01   11.1     0.00001289     -6915.6013636480 -1.86E-04
    38 OT DIIS     0.80E-01   10.9     0.00001262     -6915.6015226855 -1.59E-04
    39 OT DIIS     0.80E-01   11.0     0.00001209     -6915.6016271111 -1.04E-04
    40 OT DIIS     0.80E-01   10.7     0.00001219     -6915.6017570368 -1.30E-04
    41 OT DIIS     0.80E-01   10.9     0.00001182     -6915.6019048342 -1.48E-04
    42 OT DIIS     0.80E-01   10.8     0.00001230     -6915.6020749671 -1.70E-04
    43 OT DIIS     0.80E-01   11.0     0.00001167     -6915.6022419059 -1.67E-04
    44 OT DIIS     0.80E-01   10.9     0.00001096     -6915.6023560936 -1.14E-04
    45 OT DIIS     0.80E-01   10.8     0.00001048     -6915.6024695574 -1.13E-04
    46 OT DIIS     0.80E-01   10.7     0.00001071     -6915.6026209995 -1.51E-04
    47 OT DIIS     0.80E-01   10.8     0.00001082     -6915.6027656164 -1.45E-04
    48 OT DIIS     0.80E-01   11.0     0.00001113     -6915.6029603267 -1.95E-04
    49 OT DIIS     0.80E-01   10.9     0.00001026     -6915.6031295398 -1.69E-04
    50 OT DIIS     0.80E-01   11.0     0.00000958     -6915.6031968108 -6.73E-05

  *** SCF run converged in    50 steps ***


  Electronic density on regular grids:      -2431.9999999846        0.0000000154
  Core density on regular grids:             2431.9999999988       -0.0000000012
  Total charge density on r-space grids:        0.0000000142
  Total charge density g-space grids:           0.0000000142

  Overlap energy of the core charge distribution:               0.00000962105848
  Self energy of the core charge distribution:             -16017.19408509233290
  Core Hamiltonian energy:                                   4253.04655680266114
  Hartree energy:                                            6164.00786732086453
  Exchange-correlation energy:                              -1313.78698952438799
  Dispersion energy:                                           -1.67655593865113

  Total energy:                                             -6915.60319681078727

  outer SCF iter =    1 RMS gradient =   0.96E-05 energy =      -6915.6031968108
  outer SCF loop converged in   1 iterations or   50 steps


 ENERGY| Total FORCE_EVAL ( QS ) energy [hartree]          -6915.603284517231259

 MD| ***************************************************************************
 MD| Step number                                                              98
 MD| Time [fs]                                                         24.500000
 MD| Conserved quantity [hartree]                            -0.691208471637E+04
 MD| ---------------------------------------------------------------------------
 MD|                                          Instantaneous             Averages
 MD| CPU time per MD step [s]                    579.414548           452.215903
 MD| Energy drift per atom [K]          -0.231712320700E+01  -0.324814614332E+01
 MD| Potential energy [hartree]         -0.691560328452E+04  -0.691505219855E+04
 MD| Kinetic energy [hartree]            0.175626227846E+01   0.187152498792E+01
 MD| Temperature [K]                             957.829193          1020.691095
 MD| Pressure [bar]                      4.060485278468E+03   6.679546477263E+03
 MD| ***************************************************************************
 MD| Estimated peak process memory after this step [MiB]                   18946

 Extrapolation method: ASPC

 Number of electrons:                                                       2432
 Number of occupied orbitals:                                               1216
 Number of molecular orbitals:                                              1216

 Number of orbital functions:                                               4983
 Number of independent orbital functions:                                   4983


 SCF WAVEFUNCTION OPTIMIZATION

  ----------------------------------- OT ---------------------------------------
  Minimizer      : DIIS                : direct inversion
                                         in the iterative subspace
                                         using   7 DIIS vectors
                                         safer DIIS on
  Preconditioner : FULL_SINGLE_INVERSE : inversion of 
                                         H + eS - 2*(Sc)(c^T*H*c+const)(Sc)^T
  Precond_solver : DEFAULT
  stepsize       :    0.08000000                  energy_gap     :    0.08000000
  eps_taylor     :   0.10000E-15                  max_taylor     :             4
  ----------------------------------- OT ---------------------------------------

  Step     Update method      Time    Convergence         Total energy    Change
  ------------------------------------------------------------------------------
     1 OT DIIS     0.80E-01   17.0     0.00115934     -6915.3387312823 -6.92E+03
     2 OT DIIS     0.80E-01   11.1     0.00105567     -6915.4450674497 -1.06E-01
     3 OT DIIS     0.80E-01   11.0     0.00038324     -6915.5636109650 -1.19E-01
     4 OT DIIS     0.80E-01   10.9     0.00021685     -6915.5772238106 -1.36E-02
     5 OT DIIS     0.80E-01   11.1     0.00022005     -6915.5836859735 -6.46E-03
     6 OT DIIS     0.80E-01   10.8     0.00014031     -6915.5869766931 -3.29E-03
     7 OT DIIS     0.80E-01   10.7     0.00008971     -6915.5921312138 -5.15E-03
     8 OT DIIS     0.80E-01   10.7     0.00011043     -6915.5941638179 -2.03E-03
     9 OT DIIS     0.80E-01   11.0     0.00005926     -6915.5967622356 -2.60E-03
    10 OT DIIS     0.80E-01   10.7     0.00005194     -6915.5993577641 -2.60E-03
    11 OT DIIS     0.80E-01   11.0     0.00005981     -6915.6007160881 -1.36E-03
    12 OT DIIS     0.80E-01   10.9     0.00004471     -6915.6019281191 -1.21E-03
    13 OT DIIS     0.80E-01   10.7     0.00004079     -6915.6032311794 -1.30E-03
    14 OT DIIS     0.80E-01   10.7     0.00004614     -6915.6038928412 -6.62E-04
    15 OT DIIS     0.80E-01   10.8     0.00003471     -6915.6048851401 -9.92E-04
    16 OT DIIS     0.80E-01   11.1     0.00003716     -6915.6056166871 -7.32E-04
    17 OT DIIS     0.80E-01   11.0     0.00003022     -6915.6062150394 -5.98E-04
    18 OT DIIS     0.80E-01   10.9     0.00002883     -6915.6070588966 -8.44E-04
    19 OT DIIS     0.80E-01   10.8     0.00002730     -6915.6076303346 -5.71E-04
    20 OT DIIS     0.80E-01   10.7     0.00002411     -6915.6083352393 -7.05E-04
    21 OT DIIS     0.80E-01   11.0     0.00002368     -6915.6090056237 -6.70E-04
    22 OT DIIS     0.80E-01   11.2     0.00002637     -6915.6095009325 -4.95E-04
    23 OT DIIS     0.80E-01   11.0     0.00002180     -6915.6099675756 -4.67E-04
    24 OT DIIS     0.80E-01   10.9     0.00002366     -6915.6104007824 -4.33E-04
    25 OT DIIS     0.80E-01   10.8     0.00002006     -6915.6107320493 -3.31E-04
    26 OT DIIS     0.80E-01   11.0     0.00001989     -6915.6111896844 -4.58E-04
    27 OT DIIS     0.80E-01   10.7     0.00001828     -6915.6115515708 -3.62E-04
    28 OT DIIS     0.80E-01   10.8     0.00001723     -6915.6119873635 -4.36E-04
    29 OT DIIS     0.80E-01   10.9     0.00001728     -6915.6123600644 -3.73E-04
    30 OT DIIS     0.80E-01   10.8     0.00001705     -6915.6126532365 -2.93E-04
    31 OT DIIS     0.80E-01   10.8     0.00001611     -6915.6129765287 -3.23E-04
    32 OT DIIS     0.80E-01   11.1     0.00001631     -6915.6132458788 -2.69E-04
    33 OT DIIS     0.80E-01   11.0     0.00001524     -6915.6134927197 -2.47E-04
    34 OT DIIS     0.80E-01   10.8     0.00001478     -6915.6137698594 -2.77E-04
    35 OT DIIS     0.80E-01   10.8     0.00001387     -6915.6140209995 -2.51E-04
    36 OT DIIS     0.80E-01   10.8     0.00001362     -6915.6142607954 -2.40E-04
    37 OT DIIS     0.80E-01   11.0     0.00001305     -6915.6144813243 -2.21E-04
    38 OT DIIS     0.80E-01   10.8     0.00001276     -6915.6147007833 -2.19E-04
    39 OT DIIS     0.80E-01   10.8     0.00001275     -6915.6148965082 -1.96E-04
    40 OT DIIS     0.80E-01   10.9     0.00001228     -6915.6151028845 -2.06E-04
    41 OT DIIS     0.80E-01   10.9     0.00001224     -6915.6152570747 -1.54E-04
    42 OT DIIS     0.80E-01   10.8     0.00001147     -6915.6154193463 -1.62E-04
    43 OT DIIS     0.80E-01   10.8     0.00001113     -6915.6155605160 -1.41E-04
    44 OT DIIS     0.80E-01   10.6     0.00001080     -6915.6157179677 -1.57E-04
    45 OT DIIS     0.80E-01   11.0     0.00001056     -6915.6158724784 -1.55E-04
    46 OT DIIS     0.80E-01   11.0     0.00001056     -6915.6160208396 -1.48E-04
    47 OT DIIS     0.80E-01   10.9     0.00001019     -6915.6161487541 -1.28E-04
    48 OT DIIS     0.80E-01   11.0     0.00000995     -6915.6162864018 -1.38E-04

  *** SCF run converged in    48 steps ***


  Electronic density on regular grids:      -2431.9999999837        0.0000000163
  Core density on regular grids:             2431.9999999988       -0.0000000012
  Total charge density on r-space grids:        0.0000000151
  Total charge density g-space grids:           0.0000000151

  Overlap energy of the core charge distribution:               0.00000978442307
  Self energy of the core charge distribution:             -16017.19408509233290
  Core Hamiltonian energy:                                   4253.11222495950005
  Hartree energy:                                            6163.95071807030672
  Exchange-correlation energy:                              -1313.80879522817031
  Dispersion energy:                                           -1.67635889552010

  Total energy:                                             -6915.61628640179515

  outer SCF iter =    1 RMS gradient =   0.99E-05 energy =      -6915.6162864018
  outer SCF loop converged in   1 iterations or   48 steps


 ENERGY| Total FORCE_EVAL ( QS ) energy [hartree]          -6915.616385371147771

 MD| ***************************************************************************
 MD| Step number                                                              99
 MD| Time [fs]                                                         24.750000
 MD| Conserved quantity [hartree]                            -0.691208301092E+04
 MD| ---------------------------------------------------------------------------
 MD|                                          Instantaneous             Averages
 MD| CPU time per MD step [s]                    559.485995           453.299439
 MD| Energy drift per atom [K]          -0.925552207587E+00  -0.322468559852E+01
 MD| Potential energy [hartree]         -0.691561638537E+04  -0.691505789741E+04
 MD| Kinetic energy [hartree]            0.178926269778E+01   0.187069405570E+01
 MD| Temperature [K]                             975.826940          1020.237922
 MD| Pressure [bar]                      4.137811466641E+03   6.653872386247E+03
 MD| ***************************************************************************
 MD| Estimated peak process memory after this step [MiB]                   18953

 Extrapolation method: ASPC

 Number of electrons:                                                       2432
 Number of occupied orbitals:                                               1216
 Number of molecular orbitals:                                              1216

 Number of orbital functions:                                               4983
 Number of independent orbital functions:                                   4983


 SCF WAVEFUNCTION OPTIMIZATION

  ----------------------------------- OT ---------------------------------------
  Minimizer      : DIIS                : direct inversion
                                         in the iterative subspace
                                         using   7 DIIS vectors
                                         safer DIIS on
  Preconditioner : FULL_SINGLE_INVERSE : inversion of 
                                         H + eS - 2*(Sc)(c^T*H*c+const)(Sc)^T
  Precond_solver : DEFAULT
  stepsize       :    0.08000000                  energy_gap     :    0.08000000
  eps_taylor     :   0.10000E-15                  max_taylor     :             4
  ----------------------------------- OT ---------------------------------------

  Step     Update method      Time    Convergence         Total energy    Change
  ------------------------------------------------------------------------------
     1 OT DIIS     0.80E-01   17.6     0.00095653     -6915.4833063688 -6.92E+03
     2 OT DIIS     0.80E-01   10.3     0.00122245     -6915.4577902687  2.55E-02
     3 OT DIIS     0.80E-01    9.9     0.00025581     -6915.6055657811 -1.48E-01
     4 OT DIIS     0.80E-01   10.7     0.00018404     -6915.6116774608 -6.11E-03
     5 OT DIIS     0.80E-01   10.7     0.00020493     -6915.6138438477 -2.17E-03
     6 OT DIIS     0.80E-01   10.7     0.00009490     -6915.6165031009 -2.66E-03
     7 OT DIIS     0.80E-01   10.7     0.00008066     -6915.6190497409 -2.55E-03
     8 OT DIIS     0.80E-01   10.6     0.00008603     -6915.6207933179 -1.74E-03
     9 OT DIIS     0.80E-01   11.0     0.00005721     -6915.6228513668 -2.06E-03
    10 OT DIIS     0.80E-01   10.9     0.00005712     -6915.6240459565 -1.19E-03
    11 OT DIIS     0.80E-01   10.9     0.00004092     -6915.6252749209 -1.23E-03
    12 OT DIIS     0.80E-01   11.1     0.00004367     -6915.6263449969 -1.07E-03
    13 OT DIIS     0.80E-01   10.8     0.00003820     -6915.6271136059 -7.69E-04
    14 OT DIIS     0.80E-01   11.0     0.00003915     -6915.6279281233 -8.15E-04
    15 OT DIIS     0.80E-01   11.0     0.00003307     -6915.6286460486 -7.18E-04
    16 OT DIIS     0.80E-01   10.7     0.00003195     -6915.6292392492 -5.93E-04
    17 OT DIIS     0.80E-01   10.9     0.00002748     -6915.6299471415 -7.08E-04
    18 OT DIIS     0.80E-01   10.9     0.00002819     -6915.6306210953 -6.74E-04
    19 OT DIIS     0.80E-01   11.1     0.00002647     -6915.6312981431 -6.77E-04
    20 OT DIIS     0.80E-01   11.0     0.00002458     -6915.6319340101 -6.36E-04
    21 OT DIIS     0.80E-01   11.2     0.00002350     -6915.6324474649 -5.13E-04
    22 OT DIIS     0.80E-01   11.2     0.00002231     -6915.6329385911 -4.91E-04
    23 OT DIIS     0.80E-01   11.0     0.00002238     -6915.6333644226 -4.26E-04
    24 OT DIIS     0.80E-01   10.8     0.00002095     -6915.6337657934 -4.01E-04
    25 OT DIIS     0.80E-01   10.8     0.00001937     -6915.6340939655 -3.28E-04
    26 OT DIIS     0.80E-01   11.0     0.00001741     -6915.6344332355 -3.39E-04
    27 OT DIIS     0.80E-01   10.9     0.00001711     -6915.6346848099 -2.52E-04
    28 OT DIIS     0.80E-01   11.0     0.00001616     -6915.6349314582 -2.47E-04
    29 OT DIIS     0.80E-01   10.9     0.00001583     -6915.6351343806 -2.03E-04
    30 OT DIIS     0.80E-01   10.9     0.00001521     -6915.6353451965 -2.11E-04
    31 OT DIIS     0.80E-01   10.7     0.00001478     -6915.6355093817 -1.64E-04
    32 OT DIIS     0.80E-01   10.7     0.00001440     -6915.6356615621 -1.52E-04
    33 OT DIIS     0.80E-01   11.0     0.00001357     -6915.6358025351 -1.41E-04
    34 OT DIIS     0.80E-01   11.0     0.00001325     -6915.6359757463 -1.73E-04
    35 OT DIIS     0.80E-01   10.6     0.00001299     -6915.6361359765 -1.60E-04
    36 OT DIIS     0.80E-01   11.0     0.00001273     -6915.6362951584 -1.59E-04
    37 OT DIIS     0.80E-01   11.2     0.00001229     -6915.6364468810 -1.52E-04
    38 OT DIIS     0.80E-01   11.1     0.00001215     -6915.6366028341 -1.56E-04
    39 OT DIIS     0.80E-01   10.8     0.00001187     -6915.6367443149 -1.41E-04
    40 OT DIIS     0.80E-01   10.7     0.00001206     -6915.6368914614 -1.47E-04
    41 OT DIIS     0.80E-01   10.9     0.00001155     -6915.6370431411 -1.52E-04
    42 OT DIIS     0.80E-01   10.8     0.00001118     -6915.6372044847 -1.61E-04
    43 OT DIIS     0.80E-01   10.8     0.00001087     -6915.6373561032 -1.52E-04
    44 OT DIIS     0.80E-01   10.8     0.00001068     -6915.6374877642 -1.32E-04
    45 OT DIIS     0.80E-01   10.9     0.00001054     -6915.6376498860 -1.62E-04
    46 OT DIIS     0.80E-01   11.1     0.00001066     -6915.6378163338 -1.66E-04
    47 OT DIIS     0.80E-01   10.9     0.00001039     -6915.6379735865 -1.57E-04
    48 OT DIIS     0.80E-01   11.1     0.00001003     -6915.6380958299 -1.22E-04
    49 OT DIIS     0.80E-01   10.8     0.00000960     -6915.6381960213 -1.00E-04

  *** SCF run converged in    49 steps ***


  Electronic density on regular grids:      -2431.9999999832        0.0000000168
  Core density on regular grids:             2431.9999999988       -0.0000000012
  Total charge density on r-space grids:        0.0000000156
  Total charge density g-space grids:           0.0000000156

  Overlap energy of the core charge distribution:               0.00000987857014
  Self energy of the core charge distribution:             -16017.19408509233290
  Core Hamiltonian energy:                                   4253.14651217573009
  Hartree energy:                                            6163.91280894897864
  Exchange-correlation energy:                              -1313.82717588453238
  Dispersion energy:                                           -1.67626604770825

  Total energy:                                             -6915.63819602129479

  outer SCF iter =    1 RMS gradient =   0.96E-05 energy =      -6915.6381960213
  outer SCF loop converged in   1 iterations or   49 steps


 ENERGY| Total FORCE_EVAL ( QS ) energy [hartree]          -6915.638346281987651

 MD| ***************************************************************************
 MD| Step number                                                             100
 MD| Time [fs]                                                         25.000000
 MD| Conserved quantity [hartree]                            -0.691208653336E+04
 MD| ---------------------------------------------------------------------------
 MD|                                          Instantaneous             Averages
 MD| CPU time per MD step [s]                    570.767640           454.474121
 MD| Energy drift per atom [K]          -0.379970630242E+01  -0.323043580556E+01
 MD| Potential energy [hartree]         -0.691563834628E+04  -0.691506370190E+04
 MD| Kinetic energy [hartree]            0.180279957909E+01   0.187001511093E+01
 MD| Temperature [K]                             983.209676          1019.867639
 MD| Pressure [bar]                      4.161637116074E+03   6.628950033545E+03
 MD| ***************************************************************************
 MD| Estimated peak process memory after this step [MiB]                   18953

 Extrapolation method: ASPC

 Number of electrons:                                                       2432
 Number of occupied orbitals:                                               1216
 Number of molecular orbitals:                                              1216

 Number of orbital functions:                                               4983
 Number of independent orbital functions:                                   4983


 SCF WAVEFUNCTION OPTIMIZATION

  ----------------------------------- OT ---------------------------------------
  Minimizer      : DIIS                : direct inversion
                                         in the iterative subspace
                                         using   7 DIIS vectors
                                         safer DIIS on
  Preconditioner : FULL_SINGLE_INVERSE : inversion of 
                                         H + eS - 2*(Sc)(c^T*H*c+const)(Sc)^T
  Precond_solver : DEFAULT
  stepsize       :    0.08000000                  energy_gap     :    0.08000000
  eps_taylor     :   0.10000E-15                  max_taylor     :             4
  ----------------------------------- OT ---------------------------------------

  Step     Update method      Time    Convergence         Total energy    Change
  ------------------------------------------------------------------------------
     1 OT DIIS     0.80E-01   17.9     0.00097512     -6915.4757136052 -6.92E+03
