#     Step Nr.          Time[fs]        Kin.[a.u.]          Temp[K]            Pot.[a.u.]        Cons Qty[a.u.]        UsedTime[s]
         0            0.000000         1.784079260       973.000000000     -6913.865955864     -6912.081876604         0.000000000
         1            0.250000         1.817417540       991.182010141     -6913.892306410     -6912.082494575      1946.854841244
         2            0.500000         1.905012785      1038.954648206     -6913.943188630     -6912.083375842       108.986176028
         3            0.750000         1.963187916      1070.682164219     -6914.011840882     -6912.084420302        97.604286258
         4            1.000000         2.040830121      1113.026619615     -6914.090971021     -6912.085441494        89.432494838
         5            1.250000         2.068318091      1128.017991351     -6914.172937228     -6912.086268625        90.117916131
         6            1.500000         2.127814937      1160.466342683     -6914.252160176     -6912.086904509       112.953699002
         7            1.750000         2.075089339      1131.710890329     -6914.324703699     -6912.087356540        99.142820325
         8            2.000000         2.018244506      1100.708891384     -6914.388583538     -6912.087624618       120.149122477
         9            2.250000         1.961130761      1069.560234147     -6914.443507561     -6912.087724654        99.327930324
        10            2.500000         2.020769905      1102.086192119     -6914.490792572     -6912.087736302       118.495695840
        11            2.750000         2.063651727      1125.473052493     -6914.531569034     -6912.087686233        98.175630325
        12            3.000000         2.077436725      1132.991105845     -6914.566407419     -6912.087667223       129.656663532
        13            3.250000         2.034027487      1109.316603898     -6914.595848120     -6912.087529724        90.474052765
        14            3.500000         1.988849907      1084.677684053     -6914.620696702     -6912.087492238       171.122838951
        15            3.750000         1.936650325      1056.209109763     -6914.642360926     -6912.087575739       150.304149171
        16            4.000000         1.918113239      1046.099365413     -6914.661810472     -6912.087619436       149.843352781
        17            4.250000         1.929322170      1052.212485164     -6914.679541122     -6912.087713222       162.317556012
        18            4.500000         1.848899943      1008.351862667     -6914.695533625     -6912.087706751       131.054420251
        19            4.750000         1.920671626      1047.494656954     -6914.710756181     -6912.087779457       213.703952430
        20            5.000000         1.895984309      1034.030703768     -6914.725486973     -6912.087978834       171.520685681
        21            5.250000         1.890565552      1031.075425937     -6914.739603058     -6912.088155733       212.208152263
        22            5.500000         1.893683452      1032.775864338     -6914.752816716     -6912.088005885       172.701183163
        23            5.750000         1.916435799      1045.184524681     -6914.766627102     -6912.087769346       274.266881298
        24            6.000000         1.918855178      1046.504004041     -6914.782088949     -6912.087573678       183.171456059
        25            6.250000         1.934522468      1055.048620289     -6914.799228920     -6912.087462039       266.024676351
        26            6.500000         1.923084132      1048.810388190     -6914.818163685     -6912.087471359       259.036626751
        27            6.750000         1.891276027      1031.462903912     -6914.838009797     -6912.087363992       236.177253221
        28            7.000000         1.945578520      1061.078362648     -6914.858363791     -6912.087363459       282.621310669
        29            7.250000         1.941294323      1058.741850411     -6914.877526595     -6912.087298972       212.308253335
        30            7.500000         1.969749216      1074.260561454     -6914.894777435     -6912.087117726       294.898564944
        31            7.750000         1.851584490      1009.815959331     -6914.908306284     -6912.086823582       288.813553550
        32            8.000000         1.867613436      1018.557815441     -6914.917992119     -6912.086883658       299.241582562
        33            8.250000         1.834665336      1000.588601717     -6914.923821148     -6912.087139758       204.120231735
        34            8.500000         1.822341303       993.867328869     -6914.926391382     -6912.087337230       281.915106367
        35            8.750000         1.831728073       998.986679013     -6914.928030096     -6912.087398006       297.222985522
        36            9.000000         1.883573044      1027.261856040     -6914.932924128     -6912.087202509       348.505052776
        37            9.250000         1.808888315       986.530346686     -6914.947120713     -6912.087650049       372.801019467
        38            9.500000         1.797071735       980.085827723     -6914.971533192     -6912.087579256       296.714230161
        39            9.750000         1.845930298      1006.732279812     -6915.002974094     -6912.087326623       455.603378051
        40           10.000000         1.867756959      1018.636090192     -6915.035190521     -6912.087434017       490.146566368
        41           10.250000         1.838765057      1002.824505175     -6915.060023302     -6912.087366284       500.589364251
        42           10.500000         1.917157653      1045.578208726     -6915.076657231     -6912.088100983       507.744082558
        43           10.750000         1.972845403      1075.949157854     -6915.085925019     -6912.087924819       367.720656337
        44           11.000000         1.870504367      1020.134469659     -6915.092817681     -6912.086982007       633.692097275
        45           11.250000         1.906495005      1039.763020393     -6915.103581948     -6912.086241515       517.114850324
        46           11.500000         1.883179096      1027.047005105     -6915.121355633     -6912.086397366       417.509700984
        47           11.750000         1.861970704      1015.480385924     -6915.142836471     -6912.086223819       421.571166753
        48           12.000000         1.819362980       992.243012761     -6915.166497536     -6912.086328704       683.615576087
        49           12.250000         1.880711763      1025.701372896     -6915.188426924     -6912.085756955       388.179153459
        50           12.500000         1.858111766      1013.375800739     -6915.208547775     -6912.085519287       462.933169588
        51           12.750000         1.902032949      1037.329507268     -6915.225715559     -6912.085533857       443.605766516
        52           13.000000         1.908887700      1041.067947139     -6915.238555564     -6912.085175038       681.367721786
        53           13.250000         1.950573006      1063.802252532     -6915.248957633     -6912.086654779      1218.447249805
        54           13.500000         1.912471282      1043.022358533     -6915.252017695     -6912.085987844       335.764551121
        55           13.750000         1.895313233      1033.664713069     -6915.248596614     -6912.085616355       430.067050583
        56           14.000000         1.888772447      1030.097503103     -6915.238908440     -6912.086634284       374.757649355
        57           14.250000         1.813861747       989.242753752     -6915.221581454     -6912.086089926       389.096684826
        58           14.500000         1.886810665      1029.027587794     -6915.203920419     -6912.085126559       600.265970694
        59           14.750000         1.860625270      1014.746614128     -6915.194586507     -6912.084157893       413.986111440
        60           15.000000         1.856624221      1012.564524363     -6915.200402121     -6912.083350863       710.892086301
        61           15.250000         1.923738041      1049.167016259     -6915.223664847     -6912.085030461       544.008276409
        62           15.500000         1.877220418      1023.797265185     -6915.253062147     -6912.084929767       521.229042677
        63           15.750000         1.878389200      1024.434694824     -6915.282496905     -6912.085432499      1098.402769284
        64           16.000000         1.864056760      1016.618077764     -6915.306606515     -6912.085128753       494.457637808
        65           16.250000         1.927025881      1050.960136395     -6915.324509534     -6912.084660200       496.255376979
        66           16.500000         1.955721550      1066.610161917     -6915.337253104     -6912.085011000       511.198187911
        67           16.750000         1.968776776      1073.730213097     -6915.343593773     -6912.084321082       521.469868755
        68           17.000000         1.917438190      1045.731207682     -6915.347220589     -6912.084893483       656.785894888
        69           17.250000         1.839124638      1003.020613271     -6915.344128547     -6912.081003624       533.351212196
        70           17.500000         1.786085566       974.094198358     -6915.346808170     -6912.083325665       646.600791757
        71           17.750000         1.878662556      1024.583777644     -6915.350556601     -6912.085485077       658.001394656
        72           18.000000         1.752212096       955.620306868     -6915.354840898     -6912.085845570       567.453729053
        73           18.250000         1.726813323       941.768340349     -6915.359710249     -6912.084123317       625.471516498
        74           18.500000         1.648335981       898.968418027     -6915.368802412     -6912.084691624       570.399634007
        75           18.750000         1.727805815       942.309625000     -6915.378640606     -6912.085039637       568.641220608
        76           19.000000         1.765213011       962.710737268     -6915.385222220     -6912.083036899       599.017619288
        77           19.250000         1.761998125       960.957405067     -6915.392554231     -6912.084743976       648.754374956
        78           19.500000         1.736809978       947.220309631     -6915.392681815     -6912.083511249       589.960947170
        79           19.750000         1.714133019       934.852764206     -6915.388981888     -6912.082935370       656.830435870
        80           20.000000         1.767539797       963.979718430     -6915.382578858     -6912.082802898       702.435458077
        81           20.250000         1.718271485       937.109798230     -6915.375155401     -6912.082375265       659.232862760
        82           20.500000         1.682379259       917.534918841     -6915.370130520     -6912.081488282       679.509762939
        83           20.750000         1.673135278       912.493442938     -6915.376089347     -6912.085898225       681.581013143
        84           21.000000         1.720875719       938.530093775     -6915.383431598     -6912.085139526       578.918288175
        85           21.250000         1.716601661       936.199110933     -6915.395446290     -6912.083451219       624.161244539
        86           21.500000         1.738378793       948.075909033     -6915.414891604     -6912.085587944       593.236046328
        87           21.750000         1.765776892       963.018266354     -6915.434233621     -6912.085512087       526.404387851
        88           22.000000         1.751413399       955.184713896     -6915.454668509     -6912.085954931       714.358684699
        89           22.250000         1.752921730       956.007326513     -6915.475051748     -6912.085567272       626.433461703
        90           22.500000         1.817936427       991.465000244     -6915.493109379     -6912.083434355       692.114712237
        91           22.750000         1.865372143      1017.335460790     -6915.515222064     -6912.086331022       724.118004941
        92           23.000000         1.859307791      1014.028087932     -6915.531694493     -6912.084977433       593.572337072
        93           23.250000         1.901784567      1037.194044707     -6915.544660580     -6912.082922343       589.087979541
        94           23.500000         1.887761270      1029.546028487     -6915.557832597     -6912.083260619       637.634690254
        95           23.750000         1.836848263      1001.779125119     -6915.570986499     -6912.085363706       677.859017173
        96           24.000000         1.831306490       998.756756407     -6915.581391355     -6912.085628443       625.093890385
        97           24.250000         1.783317325       972.584456621     -6915.591860545     -6912.085459066       725.045118524
        98           24.500000         1.756262278       957.829192755     -6915.603284517     -6912.084716372       579.414548140
        99           24.750000         1.789262698       975.826940235     -6915.616385371     -6912.083010922       559.485994655
       100           25.000000         1.802799579       983.209675869     -6915.638346282     -6912.086533363       570.767640117
