#     Step Nr.          Time[fs]        Kin.[a.u.]          Temp[K]            Pot.[a.u.]        Cons Qty[a.u.]        UsedTime[s]
         0            0.000000         1.784079260       973.000000000     -6895.053126671     -6893.269047412         0.000000000
         1            0.250000         1.817673645       991.321684334     -6895.079899282     -6893.269800024      1914.662031685
         2            0.500000         1.905352894      1039.140136664     -6895.131044088     -6893.270789453       105.057904425
