     387
 i =        0, time =        0.000, E =     -6895.0531266713
  O        16.2717684062       10.0881098355        0.7991322240
  O        11.1181380743        6.7763411941        4.1225276654
  O        27.6944975421        8.3013214181        2.3196689164
  O        22.5172498338        5.0884511999        5.6365936386
  O         2.7873129617        5.1000072809        3.7551222326
  O        19.3353639267        6.6844669367        2.1696725500
  O        14.1897809469        3.4603928577        5.4790449881
  O        25.7600232547        1.7603537205        7.0642575154
  O         7.0874257976       12.1854862819        3.3167350916
  O         2.1282213559        8.8128752963        6.4793450815
  O        21.7159259290        2.3228976578        1.5956321264
  O        18.5561656659       10.5445348105        4.9218263488
  O        17.3740747348        2.5952785332        2.3250454638
  O        14.1264467624       10.8735443121        5.5742514021
  O         2.7692581689       12.4653199236        3.8169678149
  O        25.6205093419        9.1862212655        7.1141944979
  O        14.1820742985        6.0605129355        0.8982480260
  O         9.1390322742        2.7175451822        4.1315859765
  O        25.8822891029        4.2751106881        2.4327884586
  O        20.5626452741        1.1100002819        5.8011855543
  O        11.8191164893       10.3373295667        1.5247626302
  O         6.7572442066        7.1107150936        4.8108596540
  O        23.2407334398        8.7063192639        3.0750027754
  O        18.1397015831        5.4219089772        6.3763023933
  O        15.5525572025        1.4689635577        3.5471625778
  O        12.2545048561        9.7253394889        6.8048804754
  O        28.8989311957       11.2787293071        5.0981994983
  O        23.7418681940        7.9726417131        8.4247800986
  O        12.3566216292        4.7713416556        2.1209619128
  O         7.3619629218        1.4585158044        5.4728900878
  O        23.9243657508        3.0927710633        3.6827298670
  O        22.5450281855       22.9216679300        6.9987238532
  O         9.9625643448        9.1677839138        2.6811294089
  O         4.9599498254        5.8488874217        5.9076945963
  O        21.4493567979        7.5399080613        4.2989168147
  O        16.3966094381        4.2128587493        7.5740044325
  O        14.3578413149        8.8886782998        2.0924592219
  O         9.2919316212        5.5960843553        5.3646774915
  O        25.8698722578        7.1873747832        3.5380491475
  O        20.7260577885        3.9523834407        6.8972597338
  O         1.0330989988        3.8278227873        5.0751710052
  O        17.5437023206        5.4456197116        3.4191175734
  O        12.2642190371        2.2634441840        6.7697298100
  O        23.8742454512        0.5146707047        8.3107398881
  O         5.2618316641       10.9430890084        4.4098870941
  O        28.2072700580        7.6569369194        7.6557628729
  O        19.9703298608        1.1137284684        2.8071307252
  O        16.7583840069        9.3449676751        6.1024075139
  O        14.5297715768       11.4382064738        2.1130407603
  O         9.4046706127        8.1207414583        5.4538172830
  O        25.9886768163        9.7526013498        3.5734502371
  O        20.8745236724        6.4812323012        6.9864992489
  O        16.1987572991        9.9174636171        3.2777100632
  O        11.1487791493        6.5948632897        6.6703109905
  O        27.6817991997        8.3291137906        4.8667067453
  O        22.6248384235        5.0491910477        8.1982163341
  P        15.3225518640       10.0660652285        1.9669824500
  P        10.2836803316        6.8109651940        5.4081830252
  P        26.7995561635        8.4534302167        3.5890397628
  P        21.6633719471        5.1876964180        6.9681519829
 Ca        10.6092028497        4.6304584955        3.3335452000
 Ca         5.6286805009        1.0480766517        6.6723448146
 Ca        26.9052040788        6.1465153269        1.9476933437
 Ca        22.1283771280        2.5832792467        5.1482847312
  O         1.2235912351        3.5100013053        2.5059590312
  O        17.8713465533        5.0817340894        0.8947392648
  O        12.5308382204        1.9365560927        4.1938598958
  O        24.1624225899        0.2716404165        5.7905056794
  O        28.4339759463        5.7390482646        3.4712656016
  O        16.9892504478        7.3790247335        1.9419763600
  O        11.8599345055        4.1603857232        5.2875747445
  O        23.4353085099        2.4926323768        6.7823421633
  P         1.3562626897        4.4956404998        3.6931172674
  P        17.8996775345        6.1214164294        2.0309382414
  P        12.7950369298        2.8783975652        5.4266971420
  P        24.2778606656        1.2029727855        7.0843985744
 Ca         8.2883829574        7.8294119149        2.9755341483
 Ca         2.9961387534        4.7379208315        6.3153728471
 Ca        24.3945340433        9.5288364656        1.5903609827
 Ca        19.5289367230        6.3411048488        4.7591012555
  O         7.7120834511       10.4784643542        5.1424642725
  O         2.7596432437        7.1250919859        8.3437840289
  O        22.4000122423        0.6131631906        3.4262759679
  O        19.2298820732        8.8584719631        6.7578183257
  O         6.7362537600        9.6493135731        2.8873204762
  O         1.7278480780        6.4334158587        6.1211304106
  O        25.3473507707       22.8167225237        1.2336872928
  O        18.2060980329        8.1284524681        4.5206616694
  P         6.7991400208       10.8254155156        3.9150963583
  P         1.7375071771        7.5360165260        7.3306585564
  P        21.3907470568        0.9851146229        2.2407348547
  P        18.2585844387        9.2106268579        5.6581272791
 Ca         2.9247660320        1.6202286810        3.4004704679
 Ca        19.3784990588        3.1976913496        1.5715720243
 Ca        14.4839230705       -0.1457297624        4.8401193562
 Ca        27.6242587167        9.8674327766        6.8348034110
  O        17.2320780786        0.0703814094        2.2582292960
  O        14.0175366316        8.3084756905        5.6034130018
  O         2.6509815646        9.9320093766        3.7621746163
  O        25.4792694603        6.6170892081        7.0759778755
  O        15.4903981940        1.5044889501        1.0010709769
  O        12.3333042697        9.7254364884        4.2899879611
  O        28.8501886329       11.4636467585        2.5559744628
  O        23.8089047508        8.1050477368        5.9038123836
  P        16.4345759761        1.3684048916        2.2361373993
  P        13.2066482378        9.6117536862        5.5902378253
  P        29.7167060450       11.2354755152        3.8145757564
  P        24.6657703276        7.9969832619        7.2306675560
 Ca         4.5560232903        5.4982179536        2.5856450413
 Ca        15.9655919623        3.9613086725        4.0308577691
 Ca        11.2194394270        0.3082248864        7.3937565070
 Ca        27.3248072619        2.0961803805        5.6765164151
  O        13.9346318599        6.2658648419        3.4150374908
  O         8.9348770611        3.0623183815        6.7081686242
  O        25.5879403033        4.6029283649        4.9990074799
  O        20.2343142833        1.4728714991        8.3159356964
  O        14.6582839027        4.0495715561        2.4037242288
  O         9.6842123764        0.8038209086        5.7269436252
  O        26.2327530534        2.3908544895        3.8565532527
  O        24.8938185977       22.1814193497        7.2902410198
  P        13.8172451654        5.3286475957        2.1248862517
  P         8.8045955580        2.0614567125        5.4919991235
  P        25.2963067527        3.6744597026        3.7482503913
  P        20.2105159757        0.4360738027        7.1888323266
 Ca         7.1669182281        1.8210829990        2.8081326226
 Ca         3.8005697853       10.1312718910        6.1675926182
 Ca        18.5988735141        0.1841825104        4.4174349235
 Ca        15.5445969059        8.6169340793        7.7031823985
  O         9.3151427078       10.8869743346        0.8371685148
  O         4.3383755423        7.5728501197        4.0874056337
  O        20.7857163620        9.2035200148        2.4244615255
  O        15.7150834796        5.9203644240        5.7575833161
  O        10.3378999789       11.5898659252        3.0578833222
  O         5.3363082721        8.3881994802        6.3471700477
  O        21.8219796221        9.9401799151        4.6541798102
  O        16.5672832467        6.7638575522        7.9504552731
  P        10.3050932515       10.4990642530        1.8671349000
  P         5.2960415993        7.2392515421        5.2973929836
  P        21.7347941831        8.8505785933        3.5356166087
  P        16.7092860621        5.5799938945        6.9547816323
 Ca        12.3933494909        8.1792996715        2.4246380969
 Ca         7.2079119550        4.9251236747        5.8285751238
 Ca        23.5560042083        6.6153383229        4.1980402443
 Ca        18.7579509565        3.3783857848        7.6481075488
 Ca        13.6097253928        2.1010860444        1.6300923814
 Ca        10.2914787241       10.3263410951        5.0181453575
 Ca        24.6336686453        0.5751581454        3.7221678105
 Ca        21.5424865012        8.7154352425        6.8717403379
 Ca         4.5107732664        9.3126669191        2.5437906896
 Ca        15.9391805559        7.6434352604        3.9577186985
 Ca        10.7823698918        4.3135803984        7.0705778172
 Ca        27.2354319857        6.2441503533        5.8182670987
 Ca         1.8192965084        7.7031599390        4.2468207072
 Ca        18.4635819550        9.3366758205        2.3338154744
 Ca        13.4822682195        5.9757423233        5.5004275889
 Ca        24.5328194817        4.4769622348        7.7735162261
 Ca        10.9201806340        0.3056797395        3.4413399281
 Ca         7.5463177594        8.7396465470        6.6472310959
 Ca        27.3366763608        2.2077294773        2.1295516624
 Ca        24.0671045958       10.4116320449        5.2841846870
  O         3.8968129614        3.2452628223        4.5827853885
  O        30.3709039850       22.2062120561        8.6557960698
  O        20.2887762344        4.7477065977        3.1257697972
  O        15.1266431535        1.2974311612        6.8119239102
  H         5.2703769111        2.9777736225        4.9865471343
  H        31.3337973695       22.4467857072        8.5989190888
  H        21.9136310511        4.7716093321        3.1323484644
  H        16.2236625892        1.3729030315        6.6351489961
  O         6.7461102321        4.8663345849        2.8905837953
  O         1.0779738863        1.1789048118        6.7722032569
  O        17.9808416603        2.9486648885        4.9627702215
  O        16.3817191193       22.1476994143        8.6853296635
  H         7.7264869515        4.7187070558        3.1715046854
  H         2.7446151687        1.2699297487        6.7301403710
  H        18.9140220182        2.9670240335        4.8678018871
  H        17.2657191605       22.5011530458        8.4938415803
  O         6.4326315485        3.4463510756        4.4526285785
  O         1.5026895273        0.1979516086        7.7255209360
  O        23.0186664322        5.7376677896        2.2161813450
  O        17.6754945846        1.7876588513        6.0458400579
  H         4.7850668537        3.5382788421        4.2882463500
  H        -0.3424737738        0.1764175991        7.7697124540
  H        22.0509691105        5.5053604840        2.2487042709
  H        16.6632487470        1.8104681040        6.0206756235
  O         9.0728275555        5.8609567726        2.1544804345
  O         3.5150230689        1.6393419008        6.3023654741
  O        20.2012584512        3.7659130358        4.0872208512
  O        15.1995364516        0.2290162101        7.6395280290
  H         8.1419887606        5.5383569894        2.2363748578
  H         2.5459436567        1.9359910389        5.9476135519
  H        19.2567484824        3.6073549936        4.3196119837
  H        14.1296988986        0.2197402548        7.7877060289
  O        18.1727090219       21.5989125983        0.7982143620
  O        13.0205072482       18.2896443432        4.1226364157
  O        29.5964181659       19.8127945750        2.3197449002
  O        24.4240891304       16.5975742642        5.6416287556
  O         4.6885684371       16.6124531266        3.7537699245
  O        21.2364697655       18.1940841665        2.1705649672
  O        16.0914091787       14.9722407626        5.4793244330
  O        27.6602407475       13.2783326893        7.0635163079
  O         5.1913071449        0.6816198502        3.3136327954
  O         4.0302299663       20.3239793157        6.4798777160
  O        23.6179281985       13.8340126421        1.5960125877
  O        20.4579454646       22.0563271349        4.9219259579
  O        19.2781881418       14.1044850023        2.3264568926
  O        16.0282300966       22.3852408734        5.5748055167
  O         0.8688968771        0.9542207530        3.8181381901
  O        27.5221806389       20.6956984106        7.1157675413
  O        16.0857899807       17.5749857541        0.8989564414
  O        11.0433676694       14.2299123849        4.1372347599
  O        27.7839700882       15.7854007914        2.4347631388
  O        22.4640850694       12.6219512111        5.8006721145
  O        13.7134897132       21.8529115599        1.5267492451
  O         8.6593228354       18.6215764567        4.8112788958
  O        25.1430017302       20.2174023789        3.0747134561
  O        20.0420337576       16.9350160963        6.3770279151
  O        17.4555540541       12.9801148166        3.5482287856
  O        14.1563128144       21.2371691220        6.8045768890
  O        30.8001852982       22.7894898118        5.0980999163
  O        25.6440979167       19.4835699205        8.4254532520
  O        14.2592378542       16.2856207242        2.1189793909
  O         9.2654364506       12.9703382744        5.4821557400
  O        25.8259157565       14.6043628714        3.6835745419
  O        20.6443056079       11.4106940379        6.9999741997
  O        11.8640856953       20.6847933621        2.6798053123
  O         6.8617742783       17.3604958960        5.9076891099
  O        23.3514437261       19.0503200118        4.3009313831
  O        18.2992347874       15.7242533090        7.5739321873
  O        16.2590900644       20.4004592844        2.0944809813
  O        11.1938621261       17.1082969020        5.3649460727
  O        27.7719565058       18.6985078823        3.5381406141
  O        22.6277267693       15.4641324718        6.8969368935
  O         2.9342334455       15.3392315209        5.0750051272
  O        19.4449663561       16.9580706484        3.4214182956
  O        14.1654905637       13.7745480736        6.7696932918
  O        25.7739828492       12.0272098112        8.3095541369
  O         7.1745683362       22.4563589820        4.4079221019
  O        30.1090384584       19.1687339139        7.6553738843
  O        21.8721400620       12.6245287054        2.8066367815
  O        18.6604883585       20.8558460920        6.1017208478
  O        16.4316386153       22.9510625466        2.1147898932
  O        11.3066024352       19.6329871313        5.4540854506
  O        27.8908089096       21.2641293709        3.5738173870
  O        22.7767347886       17.9924931761        6.9858626906
  O        18.1018058762       21.4287927536        3.2762635779
  O        13.0513440643       18.1063687293        6.6697953518
  O        29.5835189677       19.8406422062        4.8669480664
  O        24.5273805919       16.5604410546        8.1988299932
  P        17.2228168059       21.5785582692        1.9666507843
  P        12.1852112768       18.3234569461        5.4088230418
  P        28.7010499682       19.9652197693        3.5891092142
  P        23.5665607554       16.6987724634        6.9703708282
 Ca        12.5196287663       16.1504992337        3.3353002340
 Ca         7.5258485758       12.5561131280        6.6878915696
 Ca        28.8068928455       17.6583720719        1.9480205387
 Ca        24.0319310600       14.0992314897        5.1514871049
  O         3.1250418972       15.0212048263        2.5057177743
  O        19.7712169924       16.5962521690        0.8920484950
  O        14.4324288915       13.4479039654        4.1941491890
  O        26.0645737428       11.7845273466        5.7913943464
  O        30.3354455558       17.2504474779        3.4715454722
  O        18.8956669632       18.8946784816        1.9431668265
  O        13.7621373168       15.6719903572        5.2883542832
  O        25.3366682703       14.0046438104        6.7827865778
  P         3.2586375562       16.0081431368        3.6934993826
  P        19.8003602903       17.6324421371        2.0295738398
  P        14.6966909533       14.3900815279        5.4271107823
  P        26.1807377030       12.7162210071        7.0853786327
 Ca        10.1899963273       19.3408846170        2.9753452416
 Ca         4.8975825053       16.2507552557        6.3169350104
 Ca        26.2954160542       21.0404979099        1.5903862343
 Ca        21.4309674918       17.8535010816        4.7589043520
  O         9.6161926812       21.9921588197        5.1414244421
  O         4.6606620547       18.6351437484        8.3440515592
  O        24.3016734962       12.1238702780        3.4260116370
  O        21.1306065671       20.3699221528        6.7585766991
  O         8.6387003600       21.1653327376        2.8894159859
  O         3.6292940551       17.9454690590        6.1209103504
  O        23.4456894687       11.3053902449        1.2334382542
  O        20.1083683404       19.6405494157        4.5202431189
  P         8.6962029825       22.3352195301        3.9148270131
  P         3.6394143209       19.0471985219        7.3306126190
  P        23.2935815700       12.4963319255        2.2412641279
  P        20.1609164568       20.7219849799        5.6581502240
 Ca         4.8144213351       13.1337943543        3.4055043837
 Ca        21.2787573343       14.7093615257        1.5728174100
 Ca        16.3864582996       11.3651348908        4.8386029657
 Ca        29.5249404016       21.3789325137        6.8341407449
  O        19.1338238227       11.5806286794        2.2576983526
  O        15.9194803695       19.8197580063        5.6033431103
  O         4.5528226799       21.4429366397        3.7627683559
  O        27.3807564209       18.1277721574        7.0761081715
  O        17.3931325271       13.0159220541        1.0018854334
  O        14.2343720929       21.2376896886        4.2896122533
  O        30.7519961220       22.9753109972        2.5558692739
  O        25.7115913795       19.6152036489        5.9037577007
  P        18.3361934206       12.8796010651        2.2369742393
  P        15.1079602987       21.1238981754        5.5902247647
  P        31.6192141961       22.7473106535        3.8141310098
  P        26.5672224335       19.5067412764        7.2287831095
 Ca         6.4560045444       17.0231459404        2.5840319193
 Ca        17.8673911017       15.4719402784        4.0284378650
 Ca        13.1214371143       11.8199983977        7.3936545002
 Ca        29.2231194712       13.6118644954        5.6802897121
  O        15.8370019144       17.7781801603        3.4143846102
  O        10.8376607476       14.5768321987        6.7119427742
  O        27.4887275034       16.1130195286        4.9995326312
  O        22.1338138203       12.9830023736        8.3158346688
  O        16.5577599482       15.5603566358        2.4042311568
  O        11.5883081190       12.3131915058        5.7284527784
  O        28.1344770660       13.9021273970        3.8578791003
  O        22.9908991717       10.6682511385        7.2881481930
  P        15.7194816277       16.8389883884        2.1256694648
  P        10.7054460072       13.5725191653        5.4905335046
  P        27.1981855180       15.1876934026        3.7515665385
  P        22.1127096481       11.9475293700        7.1887169414
 Ca         9.0703141636       13.3268576404        2.8023428451
 Ca         5.7033931578       21.6404560702        6.1649748436
 Ca        20.4988046514       11.6959569563        4.4159987214
 Ca        17.4454839295       20.1282628539        7.7033629746
  O        11.2123461238       22.4057333177        0.8384925920
  O         6.2404044923       19.0843325998        4.0878268316
  O        22.6872377209       20.7160176152        2.4250474848
  O        17.6170364003       17.4318637277        5.7579111130
  O         8.4345385594        0.0833092274        3.0599951256
  O         7.2388391947       19.8992555055        6.3473184255
  O        23.7242801819       21.4517829240        4.6549075827
  O        18.4681025886       18.2750277080        7.9505939532
  P        12.2120643576       22.0111697950        1.8710338282
  P         7.1978458461       18.7507660008        5.2977478287
  P        23.6344874413       20.3618958705        3.5348171702
  P        18.6102215661       17.0914925848        6.9549861248
 Ca        14.2938830837       19.6912613284        2.4242846527
 Ca         9.1095505511       16.4465048098        5.8380037881
 Ca        25.4578096983       18.1259351697        4.2019986560
 Ca        20.6593507030       14.8905588456        7.6452693120
 Ca        15.5109536229       13.6125554632        1.6244630830
 Ca        12.1887528964       21.8472346330        5.0110591841
 Ca        26.5359145566       12.0866498917        3.7222563708
 Ca        23.4438826885       20.2268848992        6.8695838387
 Ca         6.4120925774       20.8253877802        2.5429608610
 Ca        17.8417316286       19.1525317198        3.9580174848
 Ca        12.6841545080       15.8251991821        7.0708243396
 Ca        29.1368968449       17.7556873972        5.8188132192
 Ca         3.7208133405       19.2151029734        4.2467314020
 Ca        20.3665740803       20.8463181491        2.3337704580
 Ca        15.3839581903       17.4866923470        5.5005408159
 Ca        26.4300601046       15.9838936012        7.7553058881
 Ca        12.8348333656       11.8121841241        3.4456073777
 Ca         9.4482942859       20.2515258029        6.6473544348
 Ca        29.2375371474       13.7202726853        2.1302588332
 Ca        25.9678920911       21.9221933529        5.2838387289
  O         5.7947882068       14.7571684455        4.5844530129
  O        28.4649987040       10.6839974479        8.6581655443
  O        22.1921554928       16.2574294977        3.1235534359
  O        17.0285346061       12.8085701245        6.8096017248
  H         7.1728400168       14.4837238968        4.9836246846
  H        29.4216851315       10.9428185327        8.6031618705
  H        23.8158207157       16.2823636674        3.1315681415
  H        18.1247891287       12.8806146490        6.6318572524
  O         8.6453449508       16.3811589784        2.8928500926
  O         2.9784219563       12.6893975956        6.7692228132
  O        19.8873164499       14.4602710553        4.9736067555
  O        14.4784858098       10.6340602790        8.6869099303
  H         9.6273677382       16.2322005507        3.1703991040
  H         4.6493516313       12.7799290021        6.7277166430
  H        20.8169510975       14.4755581055        4.8645456547
  H        15.3597223257       10.9944147956        8.4955011353
  O         8.3305919007       14.9595045669        4.4534385372
  O         3.3989063947       11.7122686827        7.7253050143
  O        24.9212620941       17.2480549562        2.2166295079
  O        19.5773154130       13.3011608901        6.0480017958
  H         6.6890715913       15.0525902605        4.2936031608
  H         1.5805650532       11.6806485439        7.7614192195
  H        23.9529245577       17.0170448906        2.2498548236
  H        18.5669635916       13.3237842447        6.0218737181
  O        10.9737622089       17.3724987574        2.1542227574
  O         5.4168866851       13.1483284925        6.2992456831
  O        22.1011962701       15.2791671188        4.0880208347
  O        17.1013897278       11.7435815601        7.6464424282
  H        10.0432779898       17.0507868030        2.2382899787
  H         4.4493120646       13.4498882612        5.9464000743
  H        21.1510377405       15.1218940706        4.3204020960
  H        16.0360349886       11.7280428443        7.7840433974
  O        16.1646878094       10.1266258526       15.5261172030
  C        15.5232693465       11.2459485368       15.5669994616
  O        14.9413550635       12.2455585301       15.6025915104
     387
 i =        1, time =        0.250, E =     -6895.0798992821
  O        16.2746866884       10.0864827850        0.7986927515
  O        11.1192561161        6.7756941188        4.1217232677
  O        27.6938822643        8.3002052658        2.3179325081
  O        22.5209928206        5.0859039532        5.6379512646
  O         2.7908119057        5.0987989970        3.7556784666
  O        19.3366279399        6.6832920063        2.1722134930
  O        14.1899198084        3.4592294569        5.4806581270
  O        25.7574482030        1.7583546759        7.0629579029
  O         7.0854919460       12.1873234645        3.3151016075
  O         2.1279619647        8.8166179180        6.4782271325
  O        21.7152760249        2.3259793010        1.5944545683
  O        18.5576134722       10.5440400207        4.9241423058
  O        17.3742240805        2.5960181370        2.3229398911
  O        14.1252894083       10.8732087010        5.5759618594
  O         2.7691563864       12.4686438492        3.8171080547
  O        25.6241586087        9.1873975754        7.1147994198
  O        14.1820382946        6.0579727121        0.9003196777
  O         9.1385730630        2.7183879289        4.1323163902
  O        25.8834443343        4.2752171732        2.4324721986
  O        20.5615333213        1.1117200734        5.8021389313
  O        11.8202860589       10.3372059284        1.5285746708
  O         6.7553330385        7.1108439324        4.8101487204
  O        23.2435050991        8.7064491490        3.0740385179
  O        18.1347901793        5.4215354268        6.3766439980
  O        15.5507507005        1.4704816428        3.5460641472
  O        12.2572971073        9.7272465692        6.8072957011
  O        28.8999889016       11.2760660018        5.0991382197
  O        23.7426095194        7.9728336365        8.4248864632
  O        12.3536884783        4.7709988597        2.1221149683
  O         7.3597734717        1.4586752812        5.4722650176
  O        23.9242949546        3.0951550852        3.6844546526
  O        22.5438647141       22.9228310720        7.0006367698
  O         9.9663834718        9.1699138203        2.6833674265
  O         4.9606853836        5.8472725569        5.9064220728
  O        21.4528853843        7.5412644127        4.2977544242
  O        16.3944702450        4.2109447680        7.5743472477
  O        14.3548264348        8.8902501875        2.0916726129
  O         9.2911909159        5.5993877659        5.3656834510
  O        25.8699967805        7.1869089169        3.5380180270
  O        20.7234672320        3.9523516017        6.8975464491
  O         1.0335575453        3.8281481702        5.0722973642
  O        17.5428788220        5.4437452630        3.4181539543
  O        12.2633184460        2.2626560753        6.7690325296
  O        23.8748099756        0.5135777838        8.3106681794
  O         5.2589750873       10.9401524661        4.4097679114
  O        28.2068843874        7.6560633465        7.6540024135
  O        19.9715066291        1.1142480230        2.8034436829
  O        16.7593491760        9.3476968283        6.1024265557
  O        14.5270953319       11.4378192432        2.1123836600
  O         9.4059385009        8.1199143912        5.4544380681
  O        25.9898029757        9.7525929183        3.5733794747
  O        20.8766896604        6.4794657654        6.9886023955
  O        16.1998368127        9.9213209357        3.2795678543
  O        11.1490159957        6.5951278494        6.6707459499
  O        27.6790752825        8.3286732008        4.8636493992
  O        22.6234180194        5.0475428240        8.1978502842
  P        15.3242681632       10.0658513777        1.9662791581
  P        10.2861206786        6.8104109238        5.4099376196
  P        26.7999682940        8.4533059920        3.5908520975
  P        21.6638910414        5.1871514337        6.9676723915
 Ca        10.6087280193        4.6313012683        3.3347866239
 Ca         5.6293406233        1.0468900493        6.6724862143
 Ca        26.9050978889        6.1467686524        1.9472672232
 Ca        22.1296192371        2.5824052466        5.1491876037
  O         1.2220007434        3.5117440476        2.5034990587
  O        17.8716649850        5.0802614280        0.8971665944
  O        12.5295913789        1.9379693406        4.1961478711
  O        24.1647981681        0.2730264966        5.7934220952
  O        28.4349908715        5.7395120266        3.4716118205
  O        16.9911589092        7.3796142991        1.9377514677
  O        11.8613581618        4.1621514983        5.2916263450
  O        23.4352813929        2.4909963607        6.7814347363