 DBCSR| CPU Multiplication driver                                           XSMM (U)
 DBCSR| Multrec recursion limit                                              512 (U)
 DBCSR| Multiplication stack size                                          50000 (U)
 DBCSR| Maximum elements for images                                    UNLIMITED (U)
 DBCSR| Multiplicative factor virtual images                                   1 (U)
 DBCSR| Use multiplication densification                                       F (D)
 DBCSR| Multiplication size stacks                                             3 (U)
 DBCSR| Use memory pool for CPU allocation                                     T (U)
 DBCSR| Number of 3D layers                                               SINGLE (U)
 DBCSR| Use MPI memory allocation                                              F (U)
 DBCSR| Use RMA algorithm                                                      F (U)
 DBCSR| Use Communication thread                                               T (U)
 DBCSR| Communication thread load                                             30 (D)
 DBCSR| MPI: My process id                                                     0
 DBCSR| MPI: Number of processes                                               1
 DBCSR| OMP: Current number of threads                                        16
 DBCSR| OMP: Max number of threads                                            16
 DBCSR| ACC: Number of devices/node                                            1
 DBCSR| ACC: Number of stack-buffers per thread                              128 (U)
 DBCSR| ACC: Avoid driver after busy                                           F (U)
 DBCSR| ACC: Process inhomogeneous stacks                                      T (U)
 DBCSR| ACC: Min. flop for processing                                        500 (U)
 DBCSR| ACC: Use G2G algorithm                                                 F (D)
 DBCSR| ACC: Min. flop for sorting                                           100 (U)
 DBCSR| ACC: Number of binning bins                                        16384 (U)
 DBCSR| ACC: Size of binning bins                                             16 (U)
 DBCSR| ACC: GPU backend is enabled                                            T (D)
 DBCSR| Split modifier for TAS multiplication algorithm                  1.0E+00 (U)


  **** **** ******  **  PROGRAM STARTED AT               2025-11-28 16:15:21.823
 ***** ** ***  *** **   PROGRAM STARTED ON                          55a25bc91d59
 **    ****   ******    PROGRAM STARTED BY                             <unknown>
 ***** **    ** ** **   PROGRAM PROCESS ID                                   638
  **** **  *******  **  PROGRAM STARTED IN                             /mnt/cp2k

 CP2K| version string:                 CP2K version 2025.2 (Development Version)
 CP2K| source code revision number:                                  git:e68414f
 CP2K| cp2kflags: omp libint fftw3 libxc libgrpp elpa elpa_nvidia_gpu parallel s
 CP2K|            calapack cosma ace deepmd xsmm dbcsr_acc plumed2 spglib libdft
 CP2K|            td4 mctc-lib tblite sirius libvori libbqb libtorch offload_cud
 CP2K|            da spla_gemm_offloading libvdwxc hdf5 trexio libsmeagol greenx
 CP2K| is freely available from                            https://www.cp2k.org/
 CP2K| Program compiled at                          Sun Nov  2 00:48:36 UTC 2025
 CP2K| Program compiled on                                       buildkitsandbox
 CP2K| Program compiled for                                           local_cuda
 CP2K| Data directory path                                        /opt/cp2k/data
 CP2K| Input file name                                            HAP_322_md.inp

 GLOBAL| Force Environment number                                              1
 GLOBAL| Basis set file name                                        BASIS_MOLOPT
 GLOBAL| Potential file name                                      GTH_POTENTIALS
 GLOBAL| MM Potential file name                                     MM_POTENTIAL
 GLOBAL| Coordinate file name                                      __STD_INPUT__
 GLOBAL| Method name                                                        CP2K
 GLOBAL| Project name                                                 HAP_322_md
 GLOBAL| Run type                                                             MD
 GLOBAL| FFT library                                                       FFTW3
 GLOBAL| Diagonalization library                                            ELPA
 GLOBAL| Cholesky decomposition library                                ScaLAPACK
 GLOBAL| DGEMM library                                                      SPLA
 GLOBAL| Minimum number of eigenvectors for ELPA usage                        16
 GLOBAL| Orthonormality check for eigenvectors enabled                 1.000E-12
 GLOBAL| Matrix multiplication library                                     COSMA
 GLOBAL| All-to-all communication in single precision                          F
 GLOBAL| FFTs using library dependent lengths                                  F
 GLOBAL| Grid backend                                                       AUTO
 GLOBAL| Global print level                                                  LOW
 GLOBAL| MPI I/O enabled                                                       T
 GLOBAL| Total number of message passing processes                             1
 GLOBAL| Number of distributed systems (nodes)                                 1
 GLOBAL| Number of threads for this process                                   16
 GLOBAL| This output is from process                                           0
 GLOBAL| OpenMP stack size per thread (OMP_STACKSIZE)                        16M
 GLOBAL| CPU model name                           Intel(R) Core(TM) Ultra 7 265K
 GLOBAL| CPUID                                                              1002

 MEMORY| system memory details [Kb]
 MEMORY|                        rank 0           min           max       average
 MEMORY| MemTotal             49330332      49330332      49330332      49330332
 MEMORY| MemFree              43668052      43668052      43668052      43668052
 MEMORY| Buffers                 85656         85656         85656         85656
 MEMORY| Cached                4357372       4357372       4357372       4357372
 MEMORY| Slab                   270932        270932        270932        270932
 MEMORY| SReclaimable           168788        168788        168788        168788
 MEMORY| MemLikelyFree        48279868      48279868      48279868      48279868


 GENERATE|  Preliminary Number of Bonds generated:                             0
 GENERATE|  Achieved consistency in connectivity generation.

 *******************************************************************************
 *******************************************************************************
 **                                                                           **
 **     #####                         ##              ##                      **
 **    ##   ##            ##          ##              ##                      **
 **   ##     ##                       ##            ######                    **
 **   ##     ##  ##   ##  ##   #####  ##  ##   ####   ##    #####    #####    **
 **   ##     ##  ##   ##  ##  ##      ## ##   ##      ##   ##   ##  ##   ##   **
 **   ##  ## ##  ##   ##  ##  ##      ####     ###    ##   ######   ######    **
 **    ##  ###   ##   ##  ##  ##      ## ##      ##   ##   ##       ##        **
 **     #######   #####   ##   #####  ##  ##  ####    ##    #####   ##        **
 **           ##                                                    ##        **
 **                                                                           **
 **                                                ... make the atoms dance   **
 **                                                                           **
 **            Copyright (C) by CP2K developers group (2000-2025)             **
 **                      J. Chem. Phys. 152, 194103 (2020)                    **
 **                                                                           **
 *******************************************************************************


 TOTAL NUMBERS AND MAXIMUM NUMBERS

  Total number of            - Atomic kinds:                                   5
                             - Atoms:                                        387
                             - Shell sets:                                   387
                             - Shells:                                      2015
                             - Primitive Cartesian functions:               2031
                             - Cartesian basis functions:                   5338
                             - Spherical basis functions:                   4983

  Maximum angular momentum of- Orbital basis functions:                        2
                             - Local part of the GTH pseudopotential:          2
                             - Non-local part of the GTH pseudopotential:      3


 SCF PARAMETERS         Density guess:                                    ATOMIC
                        --------------------------------------------------------
                        max_scf:                                             100
                        max_scf_history:                                       0
                        max_diis:                                              4
                        --------------------------------------------------------
                        eps_scf:                                        1.00E-05
                        eps_scf_history:                                0.00E+00
                        eps_diis:                                       0.00E+00
                        eps_eigval:                                     1.00E-05
                        --------------------------------------------------------
                        level_shift [a.u.]:                             0.000000
                        --------------------------------------------------------
                        Outer loop SCF in use 
                        No variables optimised in outer loop
                        eps_scf                                         1.00E-05
                        max_scf                                               50
                        No outer loop optimization
                        step_size                                       5.00E-01

 MD_PAR| Molecular dynamics protocol (MD input parameters)
 MD_PAR| Ensemble type                                                       NVT
 MD_PAR| Number of time steps                                                200
 MD_PAR| Time step [fs]                                                 0.250000
 MD_PAR| Temperature [K]                                              973.000000
 MD_PAR| Temperature tolerance [K]                                      0.000000
 MD_PAR| Print MD information every                                    1 step(s)
 MD_PAR| File type   Print frequency [steps]                          File names
 MD_PAR| Coordinates          1                               HAP_322_md-pos.xyz
 MD_PAR| Velocities           1                             HAP_322_md-vel-1.xyz
 MD_PAR| Energies             1                                HAP_322_md-1.ener
 MD_PAR| Dump                20                             HAP_322_md-1.restart

 ROT| Rotational analysis information
 ROT| Principal axes and moments of inertia [a.u.]
 ROT|                           1                   2                   3
 ROT| Eigenvalues      2.52524350897E+09   3.78508692574E+09   5.82058455443E+09
 ROT|      x              0.948276064310     -0.317432443644     -0.003024827077
 ROT|      y              0.317446842020      0.948230232479      0.009323556409
 ROT|      z             -0.000091366811     -0.009801527180      0.999951959705
 ROT| Number of rotovibrational vectors                                        6

 DOF| Calculation of degrees of freedom
 DOF| Number of atoms                                                        387
 DOF| Number of intramolecular constraints                                     0
 DOF| Number of intermolecular constraints                                     0
 DOF| Invariants (translations + rotations)                                    3
 DOF| Degrees of freedom                                                    1158

 DOF| Restraints information
 DOF| Number of intramolecular restraints                                      0
 DOF| Number of intermolecular restraints                                      0

 THERMOSTAT| Thermostat information for PARTICLES
 THERMOSTAT| Type of thermostat            Canonical Sampling/Velocity Rescaling
 THERMOSTAT| CSVR time constant [fs]                                    1.000000
 THERMOSTAT| Initial kinetic energy                           0.000000000000E+00
 THERMOSTAT| End of thermostat information for PARTICLES

 MD_VEL| Velocities initialization
 MD_VEL| Initial temperature [K]                                      973.000000
 MD_VEL| COM velocity            -0.0000000000    -0.0000000000     0.0000000000

 Extrapolation method: initial_guess

 Number of electrons:                                                       2432
 Number of occupied orbitals:                                               1216
 Number of molecular orbitals:                                              1216

 Number of orbital functions:                                               4983
 Number of independent orbital functions:                                   4983


 SCF WAVEFUNCTION OPTIMIZATION

  ----------------------------------- OT ---------------------------------------
  Minimizer      : DIIS                : direct inversion
                                         in the iterative subspace
                                         using   7 DIIS vectors
                                         safer DIIS on
  Preconditioner : FULL_SINGLE_INVERSE : inversion of 
                                         H + eS - 2*(Sc)(c^T*H*c+const)(Sc)^T
  Precond_solver : DEFAULT
  stepsize       :    0.08000000                  energy_gap     :    0.08000000
  eps_taylor     :   0.10000E-15                  max_taylor     :             4
  ----------------------------------- OT ---------------------------------------

  Step     Update method      Time    Convergence         Total energy    Change
  ------------------------------------------------------------------------------
     1 OT DIIS     0.80E-01   21.6     0.01753217     -6706.9369618994 -6.71E+03
     2 OT DIIS     0.80E-01    9.8     0.02089914     -6769.2194582484 -6.23E+01
     3 OT DIIS     0.80E-01    9.6     0.01219752     -6800.7677063522 -3.15E+01
     4 OT DIIS     0.80E-01    9.6     0.00723269     -6828.9004160443 -2.81E+01
     5 OT DIIS     0.80E-01    9.6     0.00630477     -6844.3811097141 -1.55E+01
     6 OT DIIS     0.80E-01    9.8     0.00505371     -6856.1437778818 -1.18E+01
     7 OT DIIS     0.80E-01    9.6     0.00467721     -6865.2958573431 -9.15E+00
     8 OT DIIS     0.80E-01    9.6     0.00369122     -6870.8030076113 -5.51E+00
     9 OT DIIS     0.80E-01    9.9     0.00304144     -6876.8346049677 -6.03E+00
    10 OT DIIS     0.80E-01    9.9     0.00274701     -6879.9565845362 -3.12E+00
    11 OT DIIS     0.80E-01   10.1     0.00227434     -6883.1697166248 -3.21E+00
    12 OT DIIS     0.80E-01    9.8     0.00218316     -6885.7735923471 -2.60E+00
    13 OT DIIS     0.80E-01    9.7     0.00172683     -6886.9219888964 -1.15E+00
    14 OT DIIS     0.80E-01    9.7     0.00138888     -6888.7093379337 -1.79E+00
    15 OT DIIS     0.80E-01    9.6     0.00132983     -6889.5092902434 -8.00E-01
    16 OT DIIS     0.80E-01    9.6     0.00121622     -6890.4121747158 -9.03E-01
    17 OT DIIS     0.80E-01    9.7     0.00109619     -6890.9406995374 -5.29E-01
    18 OT DIIS     0.80E-01    9.6     0.00097939     -6891.4525404951 -5.12E-01
    19 OT DIIS     0.80E-01    9.6     0.00084218     -6891.8717048484 -4.19E-01
    20 OT DIIS     0.80E-01    9.7     0.00074965     -6892.2409848488 -3.69E-01
    21 OT DIIS     0.80E-01    9.7     0.00072551     -6892.5067380287 -2.66E-01
    22 OT DIIS     0.80E-01    9.9     0.00061786     -6892.8136489047 -3.07E-01
    23 OT DIIS     0.80E-01    9.7     0.00058165     -6893.0538890510 -2.40E-01
    24 OT DIIS     0.80E-01    9.7     0.00056705     -6893.2767029726 -2.23E-01
    25 OT DIIS     0.80E-01    9.7     0.00050690     -6893.3992615342 -1.23E-01
    26 OT DIIS     0.80E-01    9.6     0.00047659     -6893.5399011184 -1.41E-01
    27 OT DIIS     0.80E-01    9.8     0.00043866     -6893.6624589461 -1.23E-01
    28 OT DIIS     0.80E-01   10.2     0.00041053     -6893.7844610974 -1.22E-01
    29 OT DIIS     0.80E-01    9.8     0.00039572     -6893.8853954229 -1.01E-01
    30 OT DIIS     0.80E-01    9.9     0.00034856     -6893.9732967508 -8.79E-02
    31 OT DIIS     0.80E-01    9.8     0.00032067     -6894.0569743818 -8.37E-02
    32 OT DIIS     0.80E-01    9.7     0.00031489     -6894.1327129417 -7.57E-02
    33 OT DIIS     0.80E-01    9.5     0.00030227     -6894.1865172227 -5.38E-02
    34 OT DIIS     0.80E-01    9.7     0.00029461     -6894.2490302078 -6.25E-02
    35 OT DIIS     0.80E-01    9.6     0.00027056     -6894.3034694351 -5.44E-02
    36 OT DIIS     0.80E-01    9.6     0.00024818     -6894.3513035658 -4.78E-02
    37 OT DIIS     0.80E-01    9.7     0.00024043     -6894.3923932412 -4.11E-02
    38 OT DIIS     0.80E-01    9.7     0.00022152     -6894.4256610482 -3.33E-02
    39 OT DIIS     0.80E-01    9.8     0.00020923     -6894.4641367562 -3.85E-02
    40 OT DIIS     0.80E-01    9.9     0.00021233     -6894.5037702798 -3.96E-02
    41 OT DIIS     0.80E-01    9.7     0.00019960     -6894.5295216869 -2.58E-02
    42 OT DIIS     0.80E-01    9.7     0.00018970     -6894.5577291288 -2.82E-02
    43 OT DIIS     0.80E-01    9.7     0.00017745     -6894.5803723927 -2.26E-02
    44 OT DIIS     0.80E-01    9.8     0.00016771     -6894.6017509117 -2.14E-02
    45 OT DIIS     0.80E-01    9.9     0.00016603     -6894.6236561831 -2.19E-02
    46 OT DIIS     0.80E-01    9.9     0.00015794     -6894.6419445552 -1.83E-02
    47 OT DIIS     0.80E-01    9.7     0.00014933     -6894.6630510035 -2.11E-02
    48 OT DIIS     0.80E-01   10.1     0.00014430     -6894.6818566591 -1.88E-02
    49 OT DIIS     0.80E-01   10.2     0.00013954     -6894.6938750709 -1.20E-02
    50 OT DIIS     0.80E-01    9.7     0.00013324     -6894.7077433902 -1.39E-02
    51 OT DIIS     0.80E-01    9.8     0.00012987     -6894.7208746236 -1.31E-02
    52 OT DIIS     0.80E-01   10.0     0.00012525     -6894.7340244344 -1.31E-02
    53 OT DIIS     0.80E-01    9.9     0.00012411     -6894.7479323086 -1.39E-02
    54 OT DIIS     0.80E-01   10.0     0.00011529     -6894.7572910577 -9.36E-03
    55 OT DIIS     0.80E-01   10.2     0.00010821     -6894.7677738570 -1.05E-02
    56 OT DIIS     0.80E-01    9.9     0.00010729     -6894.7778320429 -1.01E-02
    57 OT DIIS     0.80E-01   10.5     0.00010576     -6894.7857019130 -7.87E-03
    58 OT DIIS     0.80E-01   11.8     0.00010381     -6894.7955054816 -9.80E-03
    59 OT DIIS     0.80E-01   10.1     0.00010078     -6894.8043669272 -8.86E-03
    60 OT DIIS     0.80E-01    9.9     0.00009464     -6894.8120891963 -7.72E-03
    61 OT DIIS     0.80E-01    9.8     0.00009155     -6894.8194662555 -7.38E-03
    62 OT DIIS     0.80E-01    9.9     0.00008801     -6894.8247966344 -5.33E-03
    63 OT DIIS     0.80E-01    9.8     0.00008544     -6894.8318912229 -7.09E-03
    64 OT DIIS     0.80E-01   10.5     0.00008552     -6894.8397796783 -7.89E-03
    65 OT DIIS     0.80E-01    9.8     0.00008525     -6894.8455471602 -5.77E-03
    66 OT DIIS     0.80E-01    9.8     0.00008038     -6894.8516901044 -6.14E-03
    67 OT DIIS     0.80E-01    9.9     0.00007672     -6894.8566524213 -4.96E-03
    68 OT DIIS     0.80E-01   10.0     0.00007385     -6894.8610600461 -4.41E-03
    69 OT DIIS     0.80E-01   10.1     0.00007380     -6894.8664828351 -5.42E-03
    70 OT DIIS     0.80E-01   10.2     0.00007313     -6894.8708570470 -4.37E-03
    71 OT DIIS     0.80E-01   10.0     0.00006970     -6894.8767307168 -5.87E-03
    72 OT DIIS     0.80E-01   10.0     0.00006829     -6894.8820408157 -5.31E-03
    73 OT DIIS     0.80E-01   10.1     0.00006550     -6894.8852946555 -3.25E-03
    74 OT DIIS     0.80E-01    9.9     0.00006336     -6894.8887499080 -3.46E-03
    75 OT DIIS     0.80E-01   10.0     0.00006309     -6894.8923832363 -3.63E-03
    76 OT DIIS     0.80E-01   10.4     0.00006264     -6894.8965792186 -4.20E-03
    77 OT DIIS     0.80E-01   10.1     0.00006242     -6894.9016077660 -5.03E-03
    78 OT DIIS     0.80E-01   10.1     0.00005935     -6894.9047978341 -3.19E-03
    79 OT DIIS     0.80E-01   10.2     0.00005568     -6894.9081078628 -3.31E-03
    80 OT DIIS     0.80E-01    9.8     0.00005416     -6894.9109365481 -2.83E-03
    81 OT DIIS     0.80E-01   10.0     0.00005522     -6894.9135978044 -2.66E-03
    82 OT DIIS     0.80E-01   10.0     0.00005532     -6894.9173951298 -3.80E-03
    83 OT DIIS     0.80E-01    9.8     0.00005489     -6894.9212271733 -3.83E-03
    84 OT DIIS     0.80E-01    9.9     0.00005150     -6894.9244357243 -3.21E-03
    85 OT DIIS     0.80E-01    9.9     0.00004919     -6894.9272612218 -2.83E-03
    86 OT DIIS     0.80E-01    9.8     0.00004740     -6894.9288639255 -1.60E-03
    87 OT DIIS     0.80E-01   10.0     0.00004649     -6894.9310930400 -2.23E-03
    88 OT DIIS     0.80E-01   10.2     0.00004813     -6894.9347443669 -3.65E-03
    89 OT DIIS     0.80E-01    9.7     0.00004938     -6894.9379244051 -3.18E-03
    90 OT DIIS     0.80E-01   10.7     0.00004606     -6894.9410027890 -3.08E-03
    91 OT DIIS     0.80E-01    9.8     0.00004300     -6894.9430702995 -2.07E-03
    92 OT DIIS     0.80E-01    9.9     0.00004100     -6894.9444903350 -1.42E-03
    93 OT DIIS     0.80E-01   10.0     0.00004077     -6894.9462266162 -1.74E-03
    94 OT DIIS     0.80E-01    9.8     0.00004307     -6894.9487079606 -2.48E-03
    95 OT DIIS     0.80E-01    9.8     0.00004264     -6894.9521484540 -3.44E-03
    96 OT DIIS     0.80E-01   10.0     0.00003994     -6894.9552972844 -3.15E-03
    97 OT DIIS     0.80E-01    9.9     0.00003770     -6894.9569801972 -1.68E-03
    98 OT DIIS     0.80E-01    9.9     0.00003551     -6894.9581487621 -1.17E-03
    99 OT DIIS     0.80E-01    9.7     0.00003514     -6894.9592118649 -1.06E-03
   100 OT DIIS     0.80E-01    9.9     0.00003730     -6894.9616664963 -2.45E-03

  Leaving inner SCF loop after reaching   100 steps.


  Electronic density on regular grids:      -2432.0000000001       -0.0000000001
  Core density on regular grids:             2431.9999999988       -0.0000000012
  Total charge density on r-space grids:       -0.0000000012
  Total charge density g-space grids:          -0.0000000012

  Overlap energy of the core charge distribution:               0.00001736885999
  Self energy of the core charge distribution:             -16017.19408509233290
  Core Hamiltonian energy:                                   4240.21868207320222
  Hartree energy:                                            6176.59963799993420
  Exchange-correlation energy:                              -1292.89366057297866
  Dispersion energy:                                           -1.69225827302315

  Total energy:                                             -6894.96166649633778

  outer SCF iter =    1 RMS gradient =   0.37E-04 energy =      -6894.9616664963

  ----------------------------------- OT ---------------------------------------
  Minimizer      : DIIS                : direct inversion
                                         in the iterative subspace
                                         using   7 DIIS vectors
                                         safer DIIS on
  Preconditioner : FULL_SINGLE_INVERSE : inversion of 
                                         H + eS - 2*(Sc)(c^T*H*c+const)(Sc)^T
  Precond_solver : DEFAULT
  stepsize       :    0.08000000                  energy_gap     :    0.08000000
  eps_taylor     :   0.10000E-15                  max_taylor     :             4
  ----------------------------------- OT ---------------------------------------

  Step     Update method      Time    Convergence         Total energy    Change
  ------------------------------------------------------------------------------
     1 OT DIIS     0.80E-01   28.5     0.00018244     -6894.9647818564 -3.12E-03
     2 OT DIIS     0.80E-01    9.0     0.00018571     -6894.9755356932 -1.08E-02
     3 OT DIIS     0.80E-01    9.1     0.00021004     -6894.9786965846 -3.16E-03
     4 OT DIIS     0.80E-01    9.4     0.00017266     -6894.9835615764 -4.86E-03
     5 OT DIIS     0.80E-01    9.3     0.00011942     -6894.9895750308 -6.01E-03
     6 OT DIIS     0.80E-01   10.2     0.00011236     -6894.9925867676 -3.01E-03
     7 OT DIIS     0.80E-01    9.7     0.00008928     -6894.9959181596 -3.33E-03
     8 OT DIIS     0.80E-01    9.7     0.00008307     -6894.9987272895 -2.81E-03
     9 OT DIIS     0.80E-01    9.7     0.00007456     -6895.0006218173 -1.89E-03
    10 OT DIIS     0.80E-01    9.7     0.00007186     -6895.0036045521 -2.98E-03
    11 OT DIIS     0.80E-01    9.7     0.00006629     -6895.0063209219 -2.72E-03
    12 OT DIIS     0.80E-01    9.8     0.00006360     -6895.0093576716 -3.04E-03
    13 OT DIIS     0.80E-01    9.6     0.00006158     -6895.0125451490 -3.19E-03
    14 OT DIIS     0.80E-01    9.9     0.00005750     -6895.0151486380 -2.60E-03
    15 OT DIIS     0.80E-01   10.2     0.00005541     -6895.0178312491 -2.68E-03
    16 OT DIIS     0.80E-01   10.1     0.00005380     -6895.0204083679 -2.58E-03
    17 OT DIIS     0.80E-01    9.9     0.00004943     -6895.0225257591 -2.12E-03
    18 OT DIIS     0.80E-01   10.0     0.00004781     -6895.0248185547 -2.29E-03
    19 OT DIIS     0.80E-01   10.1     0.00004604     -6895.0266002823 -1.78E-03
    20 OT DIIS     0.80E-01   10.0     0.00004244     -6895.0281653965 -1.57E-03
    21 OT DIIS     0.80E-01    9.9     0.00004106     -6895.0297297137 -1.56E-03
    22 OT DIIS     0.80E-01    9.8     0.00004039     -6895.0311517863 -1.42E-03
    23 OT DIIS     0.80E-01   10.8     0.00003795     -6895.0325705802 -1.42E-03
    24 OT DIIS     0.80E-01   10.3     0.00003615     -6895.0337682224 -1.20E-03
    25 OT DIIS     0.80E-01    9.9     0.00003501     -6895.0347931250 -1.02E-03
    26 OT DIIS     0.80E-01   10.0     0.00003378     -6895.0359967989 -1.20E-03
    27 OT DIIS     0.80E-01   10.3     0.00003287     -6895.0369527681 -9.56E-04
    28 OT DIIS     0.80E-01   10.2     0.00003228     -6895.0380232788 -1.07E-03
    29 OT DIIS     0.80E-01   10.1     0.00003129     -6895.0391037676 -1.08E-03
    30 OT DIIS     0.80E-01   10.4     0.00002860     -6895.0397462635 -6.42E-04
    31 OT DIIS     0.80E-01   10.1     0.00002886     -6895.0405809000 -8.35E-04
    32 OT DIIS     0.80E-01    9.9     0.00002904     -6895.0414993976 -9.18E-04
    33 OT DIIS     0.80E-01    9.8     0.00002722     -6895.0422468381 -7.47E-04
    34 OT DIIS     0.80E-01    9.6     0.00002649     -6895.0430366028 -7.90E-04
    35 OT DIIS     0.80E-01    9.9     0.00002586     -6895.0436110484 -5.74E-04
    36 OT DIIS     0.80E-01   10.1     0.00002318     -6895.0440410974 -4.30E-04
    37 OT DIIS     0.80E-01   10.0     0.00002474     -6895.0447727771 -7.32E-04
    38 OT DIIS     0.80E-01   10.0     0.00002560     -6895.0453007960 -5.28E-04
    39 OT DIIS     0.80E-01   10.0     0.00002433     -6895.0458847326 -5.84E-04
    40 OT DIIS     0.80E-01    9.9     0.00002162     -6895.0463399161 -4.55E-04
    41 OT DIIS     0.80E-01    9.9     0.00002095     -6895.0466883868 -3.48E-04
    42 OT DIIS     0.80E-01   10.1     0.00001980     -6895.0470236592 -3.35E-04
    43 OT DIIS     0.80E-01    9.7     0.00002159     -6895.0474303920 -4.07E-04
    44 OT DIIS     0.80E-01    9.9     0.00001997     -6895.0477388107 -3.08E-04
    45 OT DIIS     0.80E-01    9.7     0.00002167     -6895.0481580511 -4.19E-04
    46 OT DIIS     0.80E-01    9.8     0.00001859     -6895.0485101793 -3.52E-04
    47 OT DIIS     0.80E-01    9.9     0.00001718     -6895.0488521511 -3.42E-04
    48 OT DIIS     0.80E-01   10.0     0.00001702     -6895.0490093511 -1.57E-04
    49 OT DIIS     0.80E-01    9.9     0.00002203     -6895.0490875323 -7.82E-05
    50 OT DIIS     0.80E-01   10.1     0.00001569     -6895.0494310553 -3.44E-04
    51 OT DIIS     0.80E-01   10.3     0.00001709     -6895.0498860814 -4.55E-04
    52 OT DIIS     0.80E-01   10.2     0.00001563     -6895.0500832416 -1.97E-04
    53 OT DIIS     0.80E-01    9.9     0.00001544     -6895.0504893088 -4.06E-04
    54 OT DIIS     0.80E-01   10.0     0.00001456     -6895.0506731165 -1.84E-04
    55 OT DIIS     0.80E-01   10.0     0.00001794     -6895.0506867660 -1.36E-05
    56 OT DIIS     0.80E-01    9.8     0.00001639     -6895.0509779924 -2.91E-04
    57 OT DIIS     0.80E-01    9.6     0.00001825     -6895.0510688078 -9.08E-05
    58 OT DIIS     0.80E-01    9.6     0.00001347     -6895.0512038639 -1.35E-04
    59 OT DIIS     0.80E-01    9.7     0.00001394     -6895.0514213423 -2.17E-04
    60 OT DIIS     0.80E-01    9.7     0.00001457     -6895.0516746242 -2.53E-04
    61 OT SD       0.80E-01    9.7     0.00001601     -6895.0516650493  9.57E-06
    62 OT DIIS     0.80E-01    9.7     0.00005301     -6895.0516107833  5.43E-05
    63 OT DIIS     0.80E-01    9.6     0.00001262     -6895.0518577607 -2.47E-04
    64 OT DIIS     0.80E-01    9.6     0.00001272     -6895.0521170694 -2.59E-04
    65 OT SD       0.80E-01    9.7     0.00001422     -6895.0523065207 -1.89E-04
    66 OT DIIS     0.80E-01    9.6     0.00004543     -6895.0522707426  3.58E-05
    67 OT DIIS     0.80E-01    9.7     0.00001093     -6895.0525015726 -2.31E-04
    68 OT DIIS     0.80E-01    9.7     0.00001066     -6895.0527575380 -2.56E-04
    69 OT DIIS     0.80E-01   10.1     0.00001018     -6895.0528349862 -7.74E-05
    70 OT DIIS     0.80E-01   10.1     0.00000964     -6895.0530421655 -2.07E-04

  *** SCF run converged in    70 steps ***


  Electronic density on regular grids:      -2432.0000000002       -0.0000000002
  Core density on regular grids:             2431.9999999988       -0.0000000012
  Total charge density on r-space grids:       -0.0000000013
  Total charge density g-space grids:          -0.0000000013

  Overlap energy of the core charge distribution:               0.00001736885999
  Self energy of the core charge distribution:             -16017.19408509233290
  Core Hamiltonian energy:                                   4239.91685390102339
  Hartree energy:                                            6176.78225640322489
  Exchange-correlation energy:                              -1292.86582647326213
  Dispersion energy:                                           -1.69225827302315

  Total energy:                                             -6895.05304216551031

  outer SCF iter =    2 RMS gradient =   0.96E-05 energy =      -6895.0530421655
  outer SCF loop converged in   2 iterations or  170 steps


 ENERGY| Total FORCE_EVAL ( QS ) energy [hartree]          -6895.053126671259633

 MD_INI| MD initialization
 MD_INI| Potential energy [hartree]                          -0.689505312667E+04
 MD_INI| Kinetic energy [hartree]                             0.178407925950E+01
 MD_INI| Temperature [K]                                              973.000000
 MD_INI| Pressure [bar]                                       6.461654763914E+03
 MD_INI| Cell volume [bohr^3]                                 1.308601720879E+05
 MD_INI| Cell volume [ang^3]                                  1.939147658976E+04
 MD_INI| Cell lengths [bohr]      6.16914211E+01  4.40970598E+01  4.81031015E+01
 MD_INI| Cell lengths [ang]       3.26456940E+01  2.33351590E+01  2.54550650E+01
 MD_INI| Cell angles [deg]        9.00000000E+01  9.00000000E+01  9.00000000E+01

 Extrapolation method: ASPC

 Number of electrons:                                                       2432
 Number of occupied orbitals:                                               1216
 Number of molecular orbitals:                                              1216

 Number of orbital functions:                                               4983
 Number of independent orbital functions:                                   4983


 SCF WAVEFUNCTION OPTIMIZATION

  ----------------------------------- OT ---------------------------------------
  Minimizer      : DIIS                : direct inversion
                                         in the iterative subspace
                                         using   7 DIIS vectors
                                         safer DIIS on
  Preconditioner : FULL_SINGLE_INVERSE : inversion of 
                                         H + eS - 2*(Sc)(c^T*H*c+const)(Sc)^T
  Precond_solver : DEFAULT
  stepsize       :    0.08000000                  energy_gap     :    0.08000000
  eps_taylor     :   0.10000E-15                  max_taylor     :             4
  ----------------------------------- OT ---------------------------------------

  Step     Update method      Time    Convergence         Total energy    Change
  ------------------------------------------------------------------------------
     1 OT DIIS     0.80E-01   16.0     0.00006979     -6895.0771628829 -6.90E+03
     2 OT DIIS     0.80E-01    9.7     0.00005677     -6895.0784886269 -1.33E-03
     3 OT DIIS     0.80E-01    9.7     0.00006563     -6895.0788105063 -3.22E-04
     4 OT DIIS     0.80E-01    9.7     0.00006988     -6895.0790290557 -2.19E-04
     5 OT DIIS     0.80E-01    9.8     0.00003744     -6895.0793545997 -3.26E-04
     6 OT DIIS     0.80E-01    9.7     0.00002555     -6895.0794973516 -1.43E-04
     7 OT DIIS     0.80E-01    9.7     0.00001936     -6895.0795581956 -6.08E-05
     8 OT DIIS     0.80E-01    9.7     0.00001364     -6895.0796089329 -5.07E-05
     9 OT DIIS     0.80E-01    9.7     0.00001181     -6895.0796459952 -3.71E-05
    10 OT DIIS     0.80E-01    9.7     0.00001106     -6895.0796793651 -3.34E-05
    11 OT DIIS     0.80E-01    9.6     0.00001060     -6895.0797188315 -3.95E-05
    12 OT DIIS     0.80E-01    9.8     0.00001014     -6895.0797617223 -4.29E-05
    13 OT DIIS     0.80E-01    9.7     0.00001057     -6895.0798027413 -4.10E-05
    14 OT DIIS     0.80E-01    9.8     0.00000999     -6895.0798467554 -4.40E-05

  *** SCF run converged in    14 steps ***


  Electronic density on regular grids:      -2432.0000000000        0.0000000000
  Core density on regular grids:             2431.9999999988       -0.0000000012
  Total charge density on r-space grids:       -0.0000000011
  Total charge density g-space grids:          -0.0000000011

  Overlap energy of the core charge distribution:               0.00001611100374
  Self energy of the core charge distribution:             -16017.19408509233290
  Core Hamiltonian energy:                                   4239.82019465886424
  Hartree energy:                                            6176.83278323184732
  Exchange-correlation energy:                              -1292.84649033320875
  Dispersion energy:                                           -1.69226533152755

  Total energy:                                             -6895.07984675535317

  outer SCF iter =    1 RMS gradient =   0.10E-04 energy =      -6895.0798467554
  outer SCF loop converged in   1 iterations or   14 steps


 ENERGY| Total FORCE_EVAL ( QS ) energy [hartree]          -6895.079899282145561

 MD| ***************************************************************************
 MD| Step number                                                               1
 MD| Time [fs]                                                          0.250000
 MD| Conserved quantity [hartree]                            -0.689326980002E+04
 MD| ---------------------------------------------------------------------------
 MD|                                          Instantaneous             Averages
 MD| CPU time per MD step [s]                   1914.662032          1914.662032
 MD| Energy drift per atom [K]          -0.614097957581E+00   0.000000000000E+00
 MD| Potential energy [hartree]         -0.689507989928E+04  -0.689507989928E+04
 MD| Kinetic energy [hartree]            0.181767364493E+01   0.181767364493E+01
 MD| Temperature [K]                             991.321684           991.321684
 MD| Pressure [bar]                      6.407242234718E+03   6.407242234718E+03
 MD| ***************************************************************************
 MD| Estimated peak process memory after this step [MiB]                   17531

 Extrapolation method: ASPC

 Number of electrons:                                                       2432
 Number of occupied orbitals:                                               1216
 Number of molecular orbitals:                                              1216

 Number of orbital functions:                                               4983
 Number of independent orbital functions:                                   4983


 SCF WAVEFUNCTION OPTIMIZATION

  ----------------------------------- OT ---------------------------------------
  Minimizer      : DIIS                : direct inversion
                                         in the iterative subspace
                                         using   7 DIIS vectors
                                         safer DIIS on
  Preconditioner : FULL_SINGLE_INVERSE : inversion of 
                                         H + eS - 2*(Sc)(c^T*H*c+const)(Sc)^T
  Precond_solver : DEFAULT
  stepsize       :    0.08000000                  energy_gap     :    0.08000000
  eps_taylor     :   0.10000E-15                  max_taylor     :             4
  ----------------------------------- OT ---------------------------------------

  Step     Update method      Time    Convergence         Total energy    Change
  ------------------------------------------------------------------------------
     1 OT DIIS     0.80E-01   15.1     0.00002307     -6895.1307230870 -6.90E+03
     2 OT DIIS     0.80E-01    9.7     0.00004910     -6895.1307733733 -5.03E-05
     3 OT DIIS     0.80E-01    9.8     0.00002544     -6895.1308656059 -9.22E-05
     4 OT DIIS     0.80E-01    9.6     0.00001909     -6895.1309138222 -4.82E-05
     5 OT DIIS     0.80E-01    9.9     0.00001510     -6895.1309522678 -3.84E-05
     6 OT DIIS     0.80E-01    9.7     0.00001080     -6895.1309902771 -3.80E-05
     7 OT DIIS     0.80E-01    9.9     0.00000938     -6895.1310171022 -2.68E-05

  *** SCF run converged in     7 steps ***


  Electronic density on regular grids:      -2431.9999999996        0.0000000004
  Core density on regular grids:             2431.9999999988       -0.0000000012
  Total charge density on r-space grids:       -0.0000000008
  Total charge density g-space grids:          -0.0000000008

  Overlap energy of the core charge distribution:               0.00001408546876
  Self energy of the core charge distribution:             -16017.19408509233290
  Core Hamiltonian energy:                                   4239.67064184770152
  Hartree energy:                                            6176.90454707574008
  Exchange-correlation energy:                              -1292.81990512144444
  Dispersion energy:                                           -1.69222989738096

  Total energy:                                             -6895.13101710224782

  outer SCF iter =    1 RMS gradient =   0.94E-05 energy =      -6895.1310171022
  outer SCF loop converged in   1 iterations or    7 steps


 ENERGY| Total FORCE_EVAL ( QS ) energy [hartree]          -6895.131044087513146

 MD| ***************************************************************************
 MD| Step number                                                               2
 MD| Time [fs]                                                          0.500000
 MD| Conserved quantity [hartree]                            -0.689327078945E+04
 MD| ---------------------------------------------------------------------------
 MD|                                          Instantaneous             Averages
 MD| CPU time per MD step [s]                    105.057904          1009.859968
 MD| Energy drift per atom [K]          -0.142142757101E+01  -0.710713785503E+00
 MD| Potential energy [hartree]         -0.689513104409E+04  -0.689510547168E+04
 MD| Kinetic energy [hartree]            0.190535289367E+01   0.186151326930E+01
 MD| Temperature [K]                            1039.140137          1015.230910
 MD| Pressure [bar]                      6.356544424813E+03   6.381893329766E+03
 MD| ***************************************************************************
 MD| Estimated peak process memory after this step [MiB]                   17531

 Extrapolation method: ASPC

 Number of electrons:                                                       2432
 Number of occupied orbitals:                                               1216
 Number of molecular orbitals:                                              1216

 Number of orbital functions:                                               4983
 Number of independent orbital functions:                                   4983


 SCF WAVEFUNCTION OPTIMIZATION

  ----------------------------------- OT ---------------------------------------
  Minimizer      : DIIS                : direct inversion
                                         in the iterative subspace
                                         using   7 DIIS vectors
                                         safer DIIS on
  Preconditioner : FULL_SINGLE_INVERSE : inversion of 
                                         H + eS - 2*(Sc)(c^T*H*c+const)(Sc)^T
  Precond_solver : DEFAULT
  stepsize       :    0.08000000                  energy_gap     :    0.08000000
  eps_taylor     :   0.10000E-15                  max_taylor     :             4
  ----------------------------------- OT ---------------------------------------

  Step     Update method      Time    Convergence         Total energy    Change
  ------------------------------------------------------------------------------
     1 OT DIIS     0.80E-01   14.8     0.00001980     -6895.1996100598 -6.90E+03
     2 OT DIIS     0.80E-01   10.0     0.00006724     -6895.1994842916  1.26E-04
     3 OT DIIS     0.80E-01    9.5     0.00001714     -6895.1996750019 -1.91E-04
