 DBCSR| CPU Multiplication driver                                           XSMM (U)
 DBCSR| Multrec recursion limit                                              512 (U)
 DBCSR| Multiplication stack size                                          30000 (D)
 DBCSR| Maximum elements for images                                    UNLIMITED (U)
 DBCSR| Multiplicative factor virtual images                                   1 (U)
 DBCSR| Use multiplication densification                                       F (D)
 DBCSR| Multiplication size stacks                                             3 (U)
 DBCSR| Use memory pool for CPU allocation                                     F (U)
 DBCSR| Number of 3D layers                                               SINGLE (U)
 DBCSR| Use MPI memory allocation                                              F (U)
 DBCSR| Use RMA algorithm                                                      F (U)
 DBCSR| Use Communication thread                                               T (U)
 DBCSR| Communication thread load                                             30 (D)
 DBCSR| MPI: My process id                                                     0
 DBCSR| MPI: Number of processes                                               1
 DBCSR| OMP: Current number of threads                                        16
 DBCSR| OMP: Max number of threads                                            16
 DBCSR| ACC: Number of devices/node                                            1
 DBCSR| ACC: Number of stack-buffers per thread                                8 (U)
 DBCSR| ACC: Avoid driver after busy                                           F (U)
 DBCSR| ACC: Process inhomogeneous stacks                                      T (U)
 DBCSR| ACC: Min. flop for processing                                          0 (U)
 DBCSR| ACC: Use G2G algorithm                                                 F (D)
 DBCSR| ACC: Min. flop for sorting                                          4000 (U)
 DBCSR| ACC: Number of binning bins                                         4096 (U)
 DBCSR| ACC: Size of binning bins                                             16 (U)
 DBCSR| ACC: GPU backend is enabled                                            T (D)
 DBCSR| Split modifier for TAS multiplication algorithm                  1.0E+00 (U)


  **** **** ******  **  PROGRAM STARTED AT               2025-10-18 11:18:58.604
 ***** ** ***  *** **   PROGRAM STARTED ON                          5c3cf7d685bd
 **    ****   ******    PROGRAM STARTED BY                             <unknown>
 ***** **    ** ** **   PROGRAM PROCESS ID                                   614
  **** **  *******  **  PROGRAM STARTED IN                             /mnt/cp2k

 CP2K| version string:                                       CP2K version 2025.1
 CP2K| source code revision number:                                  git:9635df4
 CP2K| cp2kflags: omp libint fftw3 libxc libgrpp pexsi elpa elpa_nvidia_gpu para
 CP2K|            llel scalapack cosma quip xsmm dbcsr_acc plumed2 spglib libdft
 CP2K|            td4 sirius libvori libbqb offload_cuda spla_gemm_offloading li
 CP2K|            ibvdwxc hdf5 trexio
 CP2K| is freely available from                            https://www.cp2k.org/
 CP2K| Program compiled at                          Tue Jan 14 21:07:27 UTC 2025
 CP2K| Program compiled on                                          eb3a76499499
 CP2K| Program compiled for                                           local_cuda
 CP2K| Data directory path                                        /opt/cp2k/data
 CP2K| Input file name                                           HAP_431_opt.inp

 GLOBAL| Force Environment number                                              1
 GLOBAL| Basis set file name                                        BASIS_MOLOPT
 GLOBAL| Potential file name                                      GTH_POTENTIALS
 GLOBAL| MM Potential file name                                     MM_POTENTIAL
 GLOBAL| Coordinate file name                                  HAP_431_clean.xyz
 GLOBAL| Method name                                                        CP2K
 GLOBAL| Project name                                                HAP_431_opt
 GLOBAL| Run type                                                        GEO_OPT
 GLOBAL| FFT library                                                       FFTW3
 GLOBAL| Diagonalization library                                            ELPA
 GLOBAL| DGEMM library                                                      SPLA
 GLOBAL| Minimum number of eigenvectors for ELPA usage                        16
 GLOBAL| Orthonormality check for eigenvectors                          DISABLED
 GLOBAL| Matrix multiplication library                                     COSMA
 GLOBAL| All-to-all communication in single precision                          F
 GLOBAL| FFTs using library dependent lengths                                  F
 GLOBAL| Grid backend                                                       AUTO
 GLOBAL| Global print level                                                  LOW
 GLOBAL| MPI I/O enabled                                                       T
 GLOBAL| Total number of message passing processes                             1
 GLOBAL| Number of threads for this process                                   16
 GLOBAL| This output is from process                                           0
 GLOBAL| OpenMP stack size per thread (OMP_STACKSIZE)                        16M
 GLOBAL| CPU model name                           Intel(R) Core(TM) Ultra 7 265K
 GLOBAL| CPUID                                                              1002
 GLOBAL| Compiled for CPUID                                                    0

 *** HINT in environment.F:928 :: The compiler target flags (generic) used ***
 *** to build this binary cannot exploit all extensions of this CPU model  ***
 *** (x86_avx2). Consider compiler target flags as part of FCFLAGS and     ***
 *** CFLAGS (ARCH file).                                                   ***


 MEMORY| system memory details [Kb]
 MEMORY|                        rank 0           min           max       average
 MEMORY| MemTotal             49330320      49330320      49330320      49330320
 MEMORY| MemFree              47778344      47778344      47778344      47778344
 MEMORY| Buffers                 35404         35404         35404         35404
 MEMORY| Cached                 689056        689056        689056        689056
 MEMORY| Slab                    91544         91544         91544         91544
 MEMORY| SReclaimable            20056         20056         20056         20056
 MEMORY| MemLikelyFree        48522860      48522860      48522860      48522860


 GENERATE|  Preliminary Number of Bonds generated:                             0
 GENERATE|  Achieved consistency in connectivity generation.

 *******************************************************************************
 *******************************************************************************
 **                                                                           **
 **     #####                         ##              ##                      **
 **    ##   ##            ##          ##              ##                      **
 **   ##     ##                       ##            ######                    **
 **   ##     ##  ##   ##  ##   #####  ##  ##   ####   ##    #####    #####    **
 **   ##     ##  ##   ##  ##  ##      ## ##   ##      ##   ##   ##  ##   ##   **
 **   ##  ## ##  ##   ##  ##  ##      ####     ###    ##   ######   ######    **
 **    ##  ###   ##   ##  ##  ##      ## ##      ##   ##   ##       ##        **
 **     #######   #####   ##   #####  ##  ##  ####    ##    #####   ##        **
 **           ##                                                    ##        **
 **                                                                           **
 **                                                ... make the atoms dance   **
 **                                                                           **
 **            Copyright (C) by CP2K developers group (2000-2025)             **
 **                      J. Chem. Phys. 152, 194103 (2020)                    **
 **                                                                           **
 *******************************************************************************


 TOTAL NUMBERS AND MAXIMUM NUMBERS

  Total number of            - Atomic kinds:                                   5
                             - Atoms:                                        387
                             - Shell sets:                                   387
                             - Shells:                                      2015
                             - Primitive Cartesian functions:               2031
                             - Cartesian basis functions:                   5338
                             - Spherical basis functions:                   4983

  Maximum angular momentum of- Orbital basis functions:                        2
                             - Local part of the GTH pseudopotential:          2
                             - Non-local part of the GTH pseudopotential:      3


 SCF PARAMETERS         Density guess:                                    ATOMIC
                        --------------------------------------------------------
                        max_scf:                                             100
                        max_scf_history:                                       0
                        max_diis:                                              4
                        --------------------------------------------------------
                        eps_scf:                                        1.00E-06
                        eps_scf_history:                                0.00E+00
                        eps_diis:                                       1.00E-01
                        eps_eigval:                                     1.00E-05
                        --------------------------------------------------------
                        level_shift [a.u.]:                             0.000000
                        --------------------------------------------------------
                        Outer loop SCF in use 
                        No variables optimised in outer loop
                        eps_scf                                         1.00E-06
                        max_scf                                               50
                        No outer loop optimization
                        step_size                                       5.00E-01

 *******************************************************************************
 ***                     STARTING GEOMETRY OPTIMIZATION                      ***
 ***                                 L-BFGS                                  ***
 *******************************************************************************

 --------------------------
 OPTIMIZATION STEP:      1
 --------------------------

 Number of electrons:                                                       2432
 Number of occupied orbitals:                                               1216
 Number of molecular orbitals:                                              1216

 Number of orbital functions:                                               4983
 Number of independent orbital functions:                                   4983

 Extrapolation method: initial_guess


 SCF WAVEFUNCTION OPTIMIZATION

  ----------------------------------- OT ---------------------------------------
  Minimizer      : DIIS                : direct inversion
                                         in the iterative subspace
                                         using   7 DIIS vectors
                                         safer DIIS on
  Preconditioner : FULL_SINGLE_INVERSE : inversion of 
                                         H + eS - 2*(Sc)(c^T*H*c+const)(Sc)^T
  Precond_solver : DEFAULT
  stepsize       :    0.08000000                  energy_gap     :    0.08000000
  eps_taylor     :   0.10000E-15                  max_taylor     :             4
  ----------------------------------- OT ---------------------------------------

  Step     Update method      Time    Convergence         Total energy    Change
  ------------------------------------------------------------------------------
     1 OT DIIS     0.80E-01   23.9     0.01608310     -6690.5693130050 -6.69E+03
     2 OT DIIS     0.80E-01   12.4     0.00968803     -6764.0096572511 -7.34E+01
     3 OT DIIS     0.80E-01   12.3     0.00709947     -6795.4140146315 -3.14E+01
     4 OT DIIS     0.80E-01   12.4     0.00661293     -6821.2654555204 -2.59E+01
     5 OT DIIS     0.80E-01   12.3     0.00407996     -6837.7674647163 -1.65E+01
     6 OT DIIS     0.80E-01   12.4     0.00317534     -6850.8507625837 -1.31E+01
     7 OT DIIS     0.80E-01   12.6     0.00258192     -6859.4426149613 -8.59E+00
     8 OT DIIS     0.80E-01   12.3     0.00209183     -6866.0729769806 -6.63E+00
     9 OT DIIS     0.80E-01   12.3     0.00165350     -6872.0230986900 -5.95E+00
    10 OT DIIS     0.80E-01   12.4     0.00127045     -6876.4805017081 -4.46E+00
    11 OT DIIS     0.80E-01   12.2     0.00102564     -6878.9123200323 -2.43E+00
    12 OT DIIS     0.80E-01   12.4     0.00084162     -6880.5347011333 -1.62E+00
    13 OT DIIS     0.80E-01   12.3     0.00070004     -6881.7136013705 -1.18E+00
    14 OT DIIS     0.80E-01   12.2     0.00059756     -6882.5221846658 -8.09E-01
    15 OT DIIS     0.80E-01   12.3     0.00048996     -6883.2887039618 -7.67E-01
    16 OT DIIS     0.80E-01   12.2     0.00041429     -6883.8107199468 -5.22E-01
    17 OT DIIS     0.80E-01   12.3     0.00036789     -6884.1159984823 -3.05E-01
    18 OT DIIS     0.80E-01   12.1     0.00031796     -6884.4357832377 -3.20E-01
    19 OT DIIS     0.80E-01   12.1     0.00027784     -6884.6876073307 -2.52E-01
    20 OT DIIS     0.80E-01   12.2     0.00024827     -6884.8615407843 -1.74E-01
    21 OT DIIS     0.80E-01   12.6     0.00022277     -6885.0071854666 -1.46E-01
    22 OT DIIS     0.80E-01   12.4     0.00020095     -6885.1331388874 -1.26E-01
    23 OT DIIS     0.80E-01   12.4     0.00018243     -6885.2410049588 -1.08E-01
    24 OT DIIS     0.80E-01   12.2     0.00016835     -6885.3134200659 -7.24E-02
    25 OT DIIS     0.80E-01   12.2     0.00015125     -6885.4070058773 -9.36E-02
    26 OT DIIS     0.80E-01   12.7     0.00013729     -6885.4850959854 -7.81E-02
    27 OT DIIS     0.80E-01   13.2     0.00012827     -6885.5304762646 -4.54E-02
    28 OT DIIS     0.80E-01   12.2     0.00011879     -6885.5766288968 -4.62E-02
    29 OT DIIS     0.80E-01   12.5     0.00010845     -6885.6303836111 -5.38E-02
    30 OT DIIS     0.80E-01   12.5     0.00010178     -6885.6663196450 -3.59E-02
    31 OT DIIS     0.80E-01   12.4     0.00009628     -6885.6919391385 -2.56E-02
    32 OT DIIS     0.80E-01   12.5     0.00008798     -6885.7339255825 -4.20E-02
    33 OT DIIS     0.80E-01   12.4     0.00008196     -6885.7661394243 -3.22E-02
    34 OT DIIS     0.80E-01   12.4     0.00007815     -6885.7846390615 -1.85E-02
    35 OT DIIS     0.80E-01   12.4     0.00007200     -6885.8116480428 -2.70E-02
    36 OT DIIS     0.80E-01   12.0     0.00006660     -6885.8370703937 -2.54E-02
    37 OT DIIS     0.80E-01   13.0     0.00006268     -6885.8557421991 -1.87E-02
    38 OT DIIS     0.80E-01   12.9     0.00005973     -6885.8691723284 -1.34E-02
    39 OT DIIS     0.80E-01   14.8     0.00005648     -6885.8857445619 -1.66E-02
    40 OT DIIS     0.80E-01   13.0     0.00005334     -6885.9026740209 -1.69E-02
    41 OT DIIS     0.80E-01   13.2     0.00005171     -6885.9114281512 -8.75E-03
    42 OT DIIS     0.80E-01   12.2     0.00004903     -6885.9221523717 -1.07E-02
    43 OT DIIS     0.80E-01   12.3     0.00004544     -6885.9404456839 -1.83E-02
    44 OT DIIS     0.80E-01   12.2     0.00004324     -6885.9506254799 -1.02E-02
    45 OT DIIS     0.80E-01   12.4     0.00004140     -6885.9581293119 -7.50E-03
    46 OT DIIS     0.80E-01   12.2     0.00003925     -6885.9682911668 -1.02E-02
    47 OT DIIS     0.80E-01   12.1     0.00003764     -6885.9766964078 -8.41E-03
    48 OT DIIS     0.80E-01   12.4     0.00003651     -6885.9818412825 -5.14E-03
    49 OT DIIS     0.80E-01   12.4     0.00003393     -6885.9911947814 -9.35E-03
    50 OT DIIS     0.80E-01   12.4     0.00003257     -6885.9968728601 -5.68E-03
    51 OT DIIS     0.80E-01   12.2     0.00003134     -6886.0022552376 -5.38E-03
    52 OT DIIS     0.80E-01   12.2     0.00003008     -6886.0079203220 -5.67E-03
    53 OT DIIS     0.80E-01   12.1     0.00002915     -6886.0122649344 -4.34E-03
    54 OT DIIS     0.80E-01   12.2     0.00002797     -6886.0177695645 -5.50E-03
    55 OT DIIS     0.80E-01   12.4     0.00002728     -6886.0217001149 -3.93E-03
    56 OT DIIS     0.80E-01   12.2     0.00002628     -6886.0252687693 -3.57E-03
    57 OT DIIS     0.80E-01   12.4     0.00002532     -6886.0312448375 -5.98E-03
    58 OT DIIS     0.80E-01   12.2     0.00002432     -6886.0355032938 -4.26E-03
    59 OT DIIS     0.80E-01   12.4     0.00002360     -6886.0388250037 -3.32E-03
    60 OT DIIS     0.80E-01   12.3     0.00002292     -6886.0424104579 -3.59E-03
    61 OT DIIS     0.80E-01   12.2     0.00002229     -6886.0459301288 -3.52E-03
    62 OT DIIS     0.80E-01   12.2     0.00002181     -6886.0485044683 -2.57E-03
    63 OT DIIS     0.80E-01   12.2     0.00002109     -6886.0513378006 -2.83E-03
    64 OT DIIS     0.80E-01   12.1     0.00002056     -6886.0535520788 -2.21E-03
    65 OT DIIS     0.80E-01   12.1     0.00002010     -6886.0554654996 -1.91E-03
    66 OT DIIS     0.80E-01   12.3     0.00001950     -6886.0581567055 -2.69E-03
    67 OT DIIS     0.80E-01   12.2     0.00001909     -6886.0599863705 -1.83E-03
    68 OT DIIS     0.80E-01   12.2     0.00001857     -6886.0625274225 -2.54E-03
    69 OT DIIS     0.80E-01   12.3     0.00001825     -6886.0646958855 -2.17E-03
    70 OT DIIS     0.80E-01   12.2     0.00001799     -6886.0663633028 -1.67E-03
    71 OT DIIS     0.80E-01   12.0     0.00001761     -6886.0686993305 -2.34E-03
    72 OT DIIS     0.80E-01   11.9     0.00001716     -6886.0722708005 -3.57E-03
    73 OT DIIS     0.80E-01   11.8     0.00001676     -6886.0737499423 -1.48E-03
    74 OT DIIS     0.80E-01   11.8     0.00001640     -6886.0766313639 -2.88E-03
    75 OT DIIS     0.80E-01   11.7     0.00001555     -6886.0798586194 -3.23E-03
    76 OT DIIS     0.80E-01   11.8     0.00001498     -6886.0830807411 -3.22E-03
    77 OT DIIS     0.80E-01   11.8     0.00001434     -6886.0851398835 -2.06E-03
    78 OT DIIS     0.80E-01   11.8     0.00001375     -6886.0876928280 -2.55E-03
    79 OT DIIS     0.80E-01   11.8     0.00001341     -6886.0893084726 -1.62E-03
    80 OT DIIS     0.80E-01   11.6     0.00001302     -6886.0903615726 -1.05E-03
    81 OT DIIS     0.80E-01   11.5     0.00001279     -6886.0913920392 -1.03E-03
    82 OT DIIS     0.80E-01   11.8     0.00001253     -6886.0928101067 -1.42E-03
    83 OT DIIS     0.80E-01   11.9     0.00001231     -6886.0939986960 -1.19E-03
    84 OT DIIS     0.80E-01   11.9     0.00001191     -6886.0951064990 -1.11E-03
    85 OT DIIS     0.80E-01   11.7     0.00001138     -6886.0967779403 -1.67E-03
    86 OT DIIS     0.80E-01   11.9     0.00001098     -6886.0980574778 -1.28E-03
    87 OT DIIS     0.80E-01   12.0     0.00001095     -6886.0984145196 -3.57E-04
    88 OT DIIS     0.80E-01   11.8     0.00001059     -6886.0994222500 -1.01E-03
    89 OT DIIS     0.80E-01   11.6     0.00001034     -6886.0999200012 -4.98E-04
    90 OT DIIS     0.80E-01   11.8     0.00001022     -6886.1004524544 -5.32E-04
    91 OT DIIS     0.80E-01   11.7     0.00001003     -6886.1014002408 -9.48E-04
    92 OT DIIS     0.80E-01   11.7     0.00000986     -6886.1024974493 -1.10E-03
    93 OT DIIS     0.80E-01   11.7     0.00000971     -6886.1033828314 -8.85E-04
    94 OT DIIS     0.80E-01   11.8     0.00000958     -6886.1042728351 -8.90E-04
    95 OT DIIS     0.80E-01   11.7     0.00000941     -6886.1053324317 -1.06E-03
    96 OT DIIS     0.80E-01   11.7     0.00000920     -6886.1060802197 -7.48E-04
    97 OT DIIS     0.80E-01   11.7     0.00000895     -6886.1078127730 -1.73E-03
    98 OT DIIS     0.80E-01   11.4     0.00000869     -6886.1085553259 -7.43E-04
    99 OT DIIS     0.80E-01   11.6     0.00000852     -6886.1092228061 -6.67E-04
   100 OT DIIS     0.80E-01   11.9     0.00000838     -6886.1097439547 -5.21E-04

  Leaving inner SCF loop after reaching   100 steps.


  Electronic density on regular grids:      -2431.9999999856        0.0000000144
  Core density on regular grids:             2431.9999999988       -0.0000000012
  Total charge density on r-space grids:        0.0000000132
  Total charge density g-space grids:           0.0000000132

  Overlap energy of the core charge distribution:               0.03242491031492
  Self energy of the core charge distribution:             -16017.19408509233290
  Core Hamiltonian energy:                                   4331.22800628479490
  Hartree energy:                                            6128.16153984830635
  Exchange-correlation energy:                              -1326.71149917451635
  Dispersion energy:                                           -1.62613073130533

  Total energy:                                             -6886.10974395473932

  outer SCF iter =    1 RMS gradient =   0.84E-05 energy =      -6886.1097439547

  ----------------------------------- OT ---------------------------------------
  Minimizer      : DIIS                : direct inversion
                                         in the iterative subspace
                                         using   7 DIIS vectors
                                         safer DIIS on
  Preconditioner : FULL_SINGLE_INVERSE : inversion of 
                                         H + eS - 2*(Sc)(c^T*H*c+const)(Sc)^T
  Precond_solver : DEFAULT
  stepsize       :    0.08000000                  energy_gap     :    0.08000000
  eps_taylor     :   0.10000E-15                  max_taylor     :             4
  ----------------------------------- OT ---------------------------------------

  Step     Update method      Time    Convergence         Total energy    Change
  ------------------------------------------------------------------------------
     1 OT DIIS     0.80E-01   32.8     0.00009664     -6886.1103536694 -6.10E-04
     2 OT DIIS     0.80E-01   11.3     0.00011629     -6886.1130870266 -2.73E-03
     3 OT DIIS     0.80E-01   11.5     0.00011875     -6886.1139761797 -8.89E-04
     4 OT DIIS     0.80E-01   11.4     0.00009757     -6886.1151864223 -1.21E-03
     5 OT DIIS     0.80E-01   11.4     0.00008223     -6886.1168731357 -1.69E-03
     6 OT DIIS     0.80E-01   11.2     0.00006505     -6886.1178316218 -9.58E-04
     7 OT DIIS     0.80E-01   11.2     0.00005602     -6886.1190223473 -1.19E-03
     8 OT DIIS     0.80E-01   11.2     0.00005240     -6886.1200441313 -1.02E-03
     9 OT DIIS     0.80E-01   11.3     0.00004470     -6886.1208819341 -8.38E-04
    10 OT DIIS     0.80E-01   11.4     0.00004659     -6886.1217648737 -8.83E-04
    11 OT DIIS     0.80E-01   11.8     0.00004170     -6886.1228691888 -1.10E-03
    12 OT DIIS     0.80E-01   11.9     0.00004154     -6886.1238418880 -9.73E-04
    13 OT DIIS     0.80E-01   11.6     0.00004350     -6886.1247757930 -9.34E-04
    14 OT DIIS     0.80E-01   11.9     0.00004157     -6886.1257468019 -9.71E-04
    15 OT DIIS     0.80E-01   11.7     0.00004017     -6886.1264260182 -6.79E-04
    16 OT DIIS     0.80E-01   11.9     0.00003997     -6886.1270561908 -6.30E-04
    17 OT DIIS     0.80E-01   11.7     0.00003825     -6886.1277246262 -6.68E-04
    18 OT DIIS     0.80E-01   11.7     0.00003465     -6886.1286927122 -9.68E-04
    19 OT DIIS     0.80E-01   12.0     0.00003814     -6886.1287996670 -1.07E-04
    20 OT DIIS     0.80E-01   11.8     0.00003736     -6886.1292935101 -4.94E-04
    21 OT DIIS     0.80E-01   11.8     0.00003661     -6886.1298405659 -5.47E-04
    22 OT DIIS     0.80E-01   11.9     0.00003721     -6886.1297789410  6.16E-05
    23 OT DIIS     0.80E-01   11.8     0.00003401     -6886.1299494978 -1.71E-04
    24 OT DIIS     0.80E-01   11.8     0.00003127     -6886.1301508799 -2.01E-04
    25 OT DIIS     0.80E-01   11.9     0.00002913     -6886.1303117507 -1.61E-04
    26 OT DIIS     0.80E-01   11.7     0.00002610     -6886.1303573781 -4.56E-05
    27 OT DIIS     0.80E-01   11.7     0.00002538     -6886.1304869867 -1.30E-04
    28 OT DIIS     0.80E-01   11.8     0.00002470     -6886.1306237644 -1.37E-04
    29 OT DIIS     0.80E-01   11.9     0.00002501     -6886.1308064526 -1.83E-04
    30 OT DIIS     0.80E-01   11.9     0.00002630     -6886.1308652789 -5.88E-05
    31 OT DIIS     0.80E-01   11.9     0.00002608     -6886.1310091434 -1.44E-04
    32 OT DIIS     0.80E-01   11.8     0.00002559     -6886.1312042322 -1.95E-04
    33 OT DIIS     0.80E-01   11.9     0.00002598     -6886.1314035868 -1.99E-04
    34 OT DIIS     0.80E-01   11.8     0.00002524     -6886.1313772012  2.64E-05
    35 OT DIIS     0.80E-01   11.9     0.00002439     -6886.1315478374 -1.71E-04
    36 OT DIIS     0.80E-01   11.7     0.00002372     -6886.1316478604 -1.00E-04
    37 OT DIIS     0.80E-01   11.8     0.00002307     -6886.1317591739 -1.11E-04
    38 OT DIIS     0.80E-01   11.8     0.00002305     -6886.1317967841 -3.76E-05
    39 OT DIIS     0.80E-01   12.2     0.00002218     -6886.1318748282 -7.80E-05
    40 OT DIIS     0.80E-01   12.0     0.00002135     -6886.1319978069 -1.23E-04
    41 OT DIIS     0.80E-01   12.2     0.00002172     -6886.1321554135 -1.58E-04
    42 OT DIIS     0.80E-01   12.0     0.00002209     -6886.1321617300 -6.32E-06
    43 OT DIIS     0.80E-01   11.9     0.00002195     -6886.1323462374 -1.85E-04
    44 OT DIIS     0.80E-01   12.0     0.00002241     -6886.1324723162 -1.26E-04
    45 OT DIIS     0.80E-01   11.9     0.00002256     -6886.1325638036 -9.15E-05
    46 OT DIIS     0.80E-01   12.1     0.00002310     -6886.1326327684 -6.90E-05
    47 OT DIIS     0.80E-01   11.9     0.00002238     -6886.1326837273 -5.10E-05
    48 OT DIIS     0.80E-01   12.3     0.00002082     -6886.1327700415 -8.63E-05
    49 OT SD       0.80E-01   12.5     0.00002033     -6886.1328926752 -1.23E-04
    50 OT DIIS     0.80E-01   12.3     0.00005236     -6886.1329599043 -6.72E-05
    51 OT DIIS     0.80E-01   12.4     0.00002141     -6886.1332421661 -2.82E-04
    52 OT DIIS     0.80E-01   12.5     0.00002136     -6886.1333215077 -7.93E-05
    53 OT DIIS     0.80E-01   12.6     0.00002168     -6886.1334377043 -1.16E-04
    54 OT DIIS     0.80E-01   12.4     0.00002283     -6886.1335445956 -1.07E-04
    55 OT DIIS     0.80E-01   12.3     0.00002413     -6886.1336574434 -1.13E-04
    56 OT SD       0.80E-01   12.4     0.00003118     -6886.1348326337 -1.18E-03
    57 OT DIIS     0.80E-01   12.6     0.00013599     -6886.1342527768  5.80E-04
    58 OT DIIS     0.80E-01   12.4     0.00002570     -6886.1355402248 -1.29E-03
    59 OT DIIS     0.80E-01   12.4     0.00002413     -6886.1355953633 -5.51E-05
    60 OT DIIS     0.80E-01   12.2     0.00002071     -6886.1363300652 -7.35E-04
    61 OT SD       0.80E-01   12.1     0.00001756     -6886.1364240265 -9.40E-05
    62 OT DIIS     0.80E-01   12.3     0.00006269     -6886.1363628025  6.12E-05
    63 OT SD       0.80E-01   11.9     0.00001613     -6886.1373681427 -1.01E-03
    64 OT DIIS     0.80E-01   12.3     0.00004708     -6886.1373495436  1.86E-05
    65 OT DIIS     0.80E-01   12.0     0.00001508     -6886.1373318089  1.77E-05
    66 OT DIIS     0.80E-01   11.9     0.00001311     -6886.1376405061 -3.09E-04
    67 OT DIIS     0.80E-01   12.0     0.00001232     -6886.1379180047 -2.77E-04
    68 OT DIIS     0.80E-01   11.8     0.00001237     -6886.1380857169 -1.68E-04
    69 OT DIIS     0.80E-01   11.8     0.00001165     -6886.1383003763 -2.15E-04
    70 OT SD       0.80E-01   11.9     0.00001210     -6886.1384704527 -1.70E-04
    71 OT DIIS     0.80E-01   11.8     0.00003587     -6886.1384734837 -3.03E-06
    72 OT DIIS     0.80E-01   11.7     0.00001050     -6886.1388095768 -3.36E-04
    73 OT DIIS     0.80E-01   11.9     0.00001147     -6886.1390090891 -2.00E-04
    74 OT SD       0.80E-01   11.8     0.00001043     -6886.1391144646 -1.05E-04
    75 OT SD       0.80E-01   11.9     0.00001375     -6886.1391521168 -3.77E-05
    76 OT DIIS     0.80E-01   12.2     0.00004153     -6886.1391229539  2.92E-05
    77 OT SD       0.80E-01   12.0     0.00000999     -6886.1392743770 -1.51E-04
    78 OT DIIS     0.80E-01   11.9     0.00002273     -6886.1392966750 -2.23E-05
    79 OT DIIS     0.80E-01   12.2     0.00000988     -6886.1394175150 -1.21E-04
    80 OT DIIS     0.80E-01   12.4     0.00000968     -6886.1397158271 -2.98E-04
    81 OT SD       0.80E-01   12.0     0.00001301     -6886.1398988853 -1.83E-04
    82 OT DIIS     0.80E-01   12.0     0.00005461     -6886.1398258452  7.30E-05
    83 OT DIIS     0.80E-01   11.9     0.00000854     -6886.1400406662 -2.15E-04
    84 OT SD       0.80E-01   12.2     0.00001125     -6886.1402802433 -2.40E-04
    85 OT DIIS     0.80E-01   11.7     0.00003635     -6886.1402578357  2.24E-05
    86 OT DIIS     0.80E-01   12.0     0.00001168     -6886.1403995621 -1.42E-04
    87 OT DIIS     0.80E-01   11.7     0.00001160     -6886.1405785655 -1.79E-04
    88 OT SD       0.80E-01   12.0     0.00000919     -6886.1406749490 -9.64E-05
    89 OT DIIS     0.80E-01   11.9     0.00001980     -6886.1406864401 -1.15E-05
    90 OT DIIS     0.80E-01   11.8     0.00001080     -6886.1407364033 -5.00E-05
    91 OT SD       0.80E-01   11.9     0.00001084     -6886.1408038555 -6.75E-05
    92 OT DIIS     0.80E-01   11.7     0.00004299     -6886.1407575863  4.63E-05
    93 OT DIIS     0.80E-01   11.8     0.00000748     -6886.1407752574 -1.77E-05
    94 OT DIIS     0.80E-01   12.1     0.00000744     -6886.1408486874 -7.34E-05
    95 OT DIIS     0.80E-01   11.9     0.00000695     -6886.1408844574 -3.58E-05
    96 OT DIIS     0.80E-01   11.7     0.00000735     -6886.1408894460 -4.99E-06
    97 OT DIIS     0.80E-01   11.9     0.00000771     -6886.1410172508 -1.28E-04
    98 OT SD       0.80E-01   11.8     0.00000797     -6886.1410579926 -4.07E-05
    99 OT DIIS     0.80E-01   11.8     0.00002617     -6886.1410516542  6.34E-06
   100 OT DIIS     0.80E-01   11.4     0.00000777     -6886.1412027316 -1.51E-04

  Leaving inner SCF loop after reaching   100 steps.


  Electronic density on regular grids:      -2431.9999999856        0.0000000144
  Core density on regular grids:             2431.9999999988       -0.0000000012
  Total charge density on r-space grids:        0.0000000133
  Total charge density g-space grids:           0.0000000133

  Overlap energy of the core charge distribution:               0.03242491031492
  Self energy of the core charge distribution:             -16017.19408509233290
  Core Hamiltonian energy:                                   4331.10663971275517
  Hartree energy:                                            6128.22078618407159
  Exchange-correlation energy:                              -1326.68083771514785
  Dispersion energy:                                           -1.62613073130533

  Total energy:                                             -6886.14120273164372

  outer SCF iter =    2 RMS gradient =   0.78E-05 energy =      -6886.1412027316

  ----------------------------------- OT ---------------------------------------
  Minimizer      : DIIS                : direct inversion
                                         in the iterative subspace
                                         using   7 DIIS vectors
                                         safer DIIS on
  Preconditioner : FULL_SINGLE_INVERSE : inversion of 
                                         H + eS - 2*(Sc)(c^T*H*c+const)(Sc)^T
  Precond_solver : DEFAULT
  stepsize       :    0.08000000                  energy_gap     :    0.08000000
  eps_taylor     :   0.10000E-15                  max_taylor     :             4
  ----------------------------------- OT ---------------------------------------

  Step     Update method      Time    Convergence         Total energy    Change
  ------------------------------------------------------------------------------
     1 OT DIIS     0.80E-01   29.8     0.00000708     -6886.1413745476 -1.72E-04
     2 OT DIIS     0.80E-01   11.0     0.00001743     -6886.1413841080 -9.56E-06
     3 OT DIIS     0.80E-01   11.1     0.00000695     -6886.1413964010 -1.23E-05
     4 OT DIIS     0.80E-01   11.1     0.00000637     -6886.1414032080 -6.81E-06
     5 OT DIIS     0.80E-01   11.2     0.00000624     -6886.1414132521 -1.00E-05
     6 OT DIIS     0.80E-01   11.3     0.00000636     -6886.1414311944 -1.79E-05
     7 OT DIIS     0.80E-01   11.1     0.00000631     -6886.1414727749 -4.16E-05
     8 OT DIIS     0.80E-01   11.4     0.00000620     -6886.1415303744 -5.76E-05
     9 OT DIIS     0.80E-01   11.2     0.00000650     -6886.1415692528 -3.89E-05
    10 OT DIIS     0.80E-01   11.3     0.00000617     -6886.1416468340 -7.76E-05
    11 OT DIIS     0.80E-01   11.1     0.00000624     -6886.1416991347 -5.23E-05
    12 OT DIIS     0.80E-01   11.3     0.00000633     -6886.1417187834 -1.96E-05
    13 OT DIIS     0.80E-01   11.1     0.00000614     -6886.1417638323 -4.50E-05
    14 OT DIIS     0.80E-01   11.3     0.00000629     -6886.1418313342 -6.75E-05
    15 OT DIIS     0.80E-01   11.4     0.00000636     -6886.1418717416 -4.04E-05
    16 OT DIIS     0.80E-01   11.3     0.00000624     -6886.1418981270 -2.64E-05
    17 OT SD       0.80E-01   11.2     0.00000653     -6886.1420104377 -1.12E-04
    18 OT DIIS     0.80E-01   11.5     0.00002011     -6886.1420102337  2.04E-07
    19 OT DIIS     0.80E-01   11.7     0.00000647     -6886.1420625869 -5.24E-05
    20 OT DIIS     0.80E-01   14.6     0.00000689     -6886.1421035257 -4.09E-05
    21 OT SD       0.80E-01   12.4     0.00000623     -6886.1421714533 -6.79E-05
    22 OT DIIS     0.80E-01   11.7     0.00001924     -6886.1421712393  2.14E-07
    23 OT DIIS     0.80E-01   11.9     0.00000603     -6886.1422157196 -4.45E-05
    24 OT SD       0.80E-01   11.9     0.00000645     -6886.1424773782 -2.62E-04
    25 OT SD       0.80E-01   12.2     0.00001579     -6886.1424794015 -2.02E-06
    26 OT DIIS     0.80E-01   11.9     0.00007407     -6886.1422849839  1.94E-04
    27 OT DIIS     0.80E-01   11.9     0.00000544     -6886.1425469859 -2.62E-04
    28 OT SD       0.80E-01   12.1     0.00000566     -6886.1426670231 -1.20E-04
    29 OT DIIS     0.80E-01   12.0     0.00001094     -6886.1426733207 -6.30E-06
    30 OT DIIS     0.80E-01   12.0     0.00000580     -6886.1426720315  1.29E-06
    31 OT SD       0.80E-01   11.8     0.00000611     -6886.1428053562 -1.33E-04
    32 OT DIIS     0.80E-01   11.8     0.00002031     -6886.1427997313  5.62E-06
    33 OT DIIS     0.80E-01   11.7     0.00000515     -6886.1428341905 -3.45E-05
    34 OT DIIS     0.80E-01   12.0     0.00000529     -6886.1429328719 -9.87E-05
    35 OT SD       0.80E-01   11.8     0.00000610     -6886.1430367403 -1.04E-04
    36 OT SD       0.80E-01   12.2     0.00001422     -6886.1430380289 -1.29E-06
    37 OT DIIS     0.80E-01   12.2     0.00006733     -6886.1428816333  1.56E-04
    38 OT SD       0.80E-01   12.1     0.00000499     -6886.1430535854 -1.72E-04
    39 OT DIIS     0.80E-01   12.0     0.00001544     -6886.1430536203 -3.49E-08
    40 OT DIIS     0.80E-01   11.8     0.00000438     -6886.1430888259 -3.52E-05
    41 OT SD       0.80E-01   11.9     0.00000494     -6886.1431079661 -1.91E-05
    42 OT DIIS     0.80E-01   12.0     0.00001824     -6886.1431050566  2.91E-06
    43 OT DIIS     0.80E-01   12.0     0.00000427     -6886.1431516206 -4.66E-05
    44 OT SD       0.80E-01   12.2     0.00000493     -6886.1432711545 -1.20E-04
    45 OT DIIS     0.80E-01   12.1     0.00001656     -6886.1432682377  2.92E-06
    46 OT DIIS     0.80E-01   11.9     0.00000451     -6886.1432634220  4.82E-06
    47 OT DIIS     0.80E-01   12.1     0.00000689     -6886.1434276402 -1.64E-04
    48 OT SD       0.80E-01   12.0     0.00000594     -6886.1434271841  4.56E-07
    49 OT DIIS     0.80E-01   12.4     0.00002098     -6886.1434168730  1.03E-05
    50 OT DIIS     0.80E-01   11.8     0.00000413     -6886.1434299323 -1.31E-05
    51 OT SD       0.80E-01   12.1     0.00000619     -6886.1435519388 -1.22E-04
    52 OT SD       0.80E-01   12.2     0.00001656     -6886.1435460545  5.88E-06
    53 OT DIIS     0.80E-01   12.2     0.00007511     -6886.1433345158  2.12E-04
    54 OT DIIS     0.80E-01   12.6     0.00000414     -6886.1435652025 -2.31E-04
    55 OT SD       0.80E-01   12.1     0.00000368     -6886.1435999590 -3.48E-05
    56 OT DIIS     0.80E-01   11.9     0.00000923     -6886.1436016546 -1.70E-06
    57 OT DIIS     0.80E-01   12.2     0.00000370     -6886.1436317174 -3.01E-05
    58 OT SD       0.80E-01   11.9     0.00000330     -6886.1436524266 -2.07E-05
    59 OT DIIS     0.80E-01   12.1     0.00000819     -6886.1436544879 -2.06E-06
    60 OT DIIS     0.80E-01   12.1     0.00000374     -6886.1437036814 -4.92E-05
    61 OT DIIS     0.80E-01   12.1     0.00000451     -6886.1437622106 -5.85E-05
    62 OT SD       0.80E-01   12.0     0.00000460     -6886.1437652274 -3.02E-06
    63 OT SD       0.80E-01   12.0     0.00000945     -6886.1437652304 -3.02E-09
    64 OT DIIS     0.80E-01   12.0     0.00003714     -6886.1437147012  5.05E-05
    65 OT DIIS     0.80E-01   12.0     0.00000316     -6886.1437679543 -5.33E-05
    66 OT DIIS     0.80E-01   12.2     0.00000276     -6886.1437699131 -1.96E-06
    67 OT DIIS     0.80E-01   11.8     0.00000292     -6886.1437719496 -2.04E-06
    68 OT DIIS     0.80E-01   12.0     0.00000269     -6886.1437730318 -1.08E-06
    69 OT DIIS     0.80E-01   12.2     0.00000282     -6886.1437781434 -5.11E-06
    70 OT DIIS     0.80E-01   12.2     0.00000279     -6886.1437787269 -5.84E-07
    71 OT DIIS     0.80E-01   11.9     0.00000279     -6886.1437874416 -8.71E-06
    72 OT SD       0.80E-01   12.0     0.00000280     -6886.1438055284 -1.81E-05
    73 OT DIIS     0.80E-01   12.0     0.00000746     -6886.1438068298 -1.30E-06
    74 OT DIIS     0.80E-01   12.0     0.00000261     -6886.1438196600 -1.28E-05
    75 OT DIIS     0.80E-01   12.0     0.00000264     -6886.1438250855 -5.43E-06
    76 OT DIIS     0.80E-01   11.7     0.00000282     -6886.1438260312 -9.46E-07
    77 OT DIIS     0.80E-01   11.9     0.00000260     -6886.1438317072 -5.68E-06
    78 OT DIIS     0.80E-01   12.1     0.00000267     -6886.1438366576 -4.95E-06
    79 OT SD       0.80E-01   12.0     0.00000264     -6886.1438554776 -1.88E-05
    80 OT DIIS     0.80E-01   12.0     0.00000624     -6886.1438569748 -1.50E-06
    81 OT DIIS     0.80E-01   11.7     0.00000273     -6886.1438657947 -8.82E-06
    82 OT DIIS     0.80E-01   12.1     0.00000269     -6886.1438764139 -1.06E-05
    83 OT DIIS     0.80E-01   11.9     0.00000256     -6886.1438865525 -1.01E-05
    84 OT SD       0.80E-01   12.0     0.00000267     -6886.1438975289 -1.10E-05
    85 OT DIIS     0.80E-01   11.9     0.00000825     -6886.1438979028 -3.74E-07
    86 OT SD       0.80E-01   11.8     0.00000243     -6886.1439325234 -3.46E-05
    87 OT DIIS     0.80E-01   12.3     0.00000550     -6886.1439340266 -1.50E-06
    88 OT DIIS     0.80E-01   11.7     0.00000234     -6886.1439445735 -1.05E-05
    89 OT DIIS     0.80E-01   12.1     0.00000236     -6886.1439677177 -2.31E-05
    90 OT DIIS     0.80E-01   11.8     0.00000236     -6886.1439785073 -1.08E-05
    91 OT DIIS     0.80E-01   12.0     0.00000233     -6886.1439826374 -4.13E-06
    92 OT DIIS     0.80E-01   12.2     0.00000232     -6886.1439884251 -5.79E-06
    93 OT SD       0.80E-01   11.9     0.00000251     -6886.1440057976 -1.74E-05
    94 OT DIIS     0.80E-01   11.8     0.00000763     -6886.1440061001 -3.02E-07
    95 OT DIIS     0.80E-01   11.8     0.00000240     -6886.1440261288 -2.00E-05
    96 OT SD       0.80E-01   12.0     0.00000234     -6886.1440419532 -1.58E-05
    97 OT DIIS     0.80E-01   11.5     0.00000469     -6886.1440433059 -1.35E-06
    98 OT DIIS     0.80E-01   12.0     0.00000240     -6886.1440521890 -8.88E-06
    99 OT SD       0.80E-01   11.9     0.00000250     -6886.1440819389 -2.97E-05
   100 OT DIIS     0.80E-01   12.0     0.00000709     -6886.1440822113 -2.72E-07

  Leaving inner SCF loop after reaching   100 steps.


  Electronic density on regular grids:      -2431.9999999855        0.0000000145
  Core density on regular grids:             2431.9999999988       -0.0000000012
  Total charge density on r-space grids:        0.0000000133
  Total charge density g-space grids:           0.0000000133

  Overlap energy of the core charge distribution:               0.03242491031492
  Self energy of the core charge distribution:             -16017.19408509233290
  Core Hamiltonian energy:                                   4331.09568673949434
  Hartree energy:                                            6128.22447948269928
  Exchange-correlation energy:                              -1326.67645752014937
  Dispersion energy:                                           -1.62613073130533

  Total energy:                                             -6886.14408221127997

  outer SCF iter =    3 RMS gradient =   0.71E-05 energy =      -6886.1440822113

  ----------------------------------- OT ---------------------------------------
  Minimizer      : DIIS                : direct inversion
                                         in the iterative subspace
                                         using   7 DIIS vectors
                                         safer DIIS on
  Preconditioner : FULL_SINGLE_INVERSE : inversion of 
                                         H + eS - 2*(Sc)(c^T*H*c+const)(Sc)^T
  Precond_solver : DEFAULT
  stepsize       :    0.08000000                  energy_gap     :    0.08000000
  eps_taylor     :   0.10000E-15                  max_taylor     :             4
  ----------------------------------- OT ---------------------------------------

  Step     Update method      Time    Convergence         Total energy    Change
  ------------------------------------------------------------------------------
     1 OT DIIS     0.80E-01   31.3     0.00000245     -6886.1440846004 -2.39E-06
     2 OT DIIS     0.80E-01   11.4     0.00000770     -6886.1440845413  5.91E-08
     3 OT DIIS     0.80E-01   11.3     0.00000231     -6886.1440868477 -2.31E-06
     4 OT DIIS     0.80E-01   11.3     0.00000199     -6886.1440873495 -5.02E-07
     5 OT DIIS     0.80E-01   11.5     0.00000202     -6886.1440887039 -1.35E-06
     6 OT DIIS     0.80E-01   11.4     0.00000211     -6886.1440935909 -4.89E-06
     7 OT DIIS     0.80E-01   11.5     0.00000202     -6886.1441028295 -9.24E-06
     8 OT DIIS     0.80E-01   11.2     0.00000194     -6886.1441093953 -6.57E-06
     9 OT DIIS     0.80E-01   11.2     0.00000198     -6886.1441139131 -4.52E-06
    10 OT DIIS     0.80E-01   11.4     0.00000191     -6886.1441176179 -3.70E-06
    11 OT DIIS     0.80E-01   11.5     0.00000194     -6886.1441195371 -1.92E-06
    12 OT DIIS     0.80E-01   11.5     0.00000193     -6886.1441224782 -2.94E-06
    13 OT DIIS     0.80E-01   11.5     0.00000190     -6886.1441299836 -7.51E-06
    14 OT DIIS     0.80E-01   11.3     0.00000191     -6886.1441393089 -9.33E-06
    15 OT DIIS     0.80E-01   11.3     0.00000197     -6886.1441439273 -4.62E-06
    16 OT DIIS     0.80E-01   11.6     0.00000194     -6886.1441445333 -6.06E-07
    17 OT SD       0.80E-01   11.6     0.00000192     -6886.1441527627 -8.23E-06
    18 OT DIIS     0.80E-01   11.6     0.00000362     -6886.1441539995 -1.24E-06
    19 OT DIIS     0.80E-01   11.3     0.00000193     -6886.1441661199 -1.21E-05
    20 OT DIIS     0.80E-01   11.3     0.00000197     -6886.1441667777 -6.58E-07
    21 OT SD       0.80E-01   11.6     0.00000189     -6886.1441698238 -3.05E-06
    22 OT DIIS     0.80E-01   11.3     0.00000346     -6886.1441710509 -1.23E-06
    23 OT DIIS     0.80E-01   11.3     0.00000193     -6886.1441784965 -7.45E-06
    24 OT SD       0.80E-01   11.5     0.00000195     -6886.1441901257 -1.16E-05
    25 OT DIIS     0.80E-01   11.2     0.00000444     -6886.1441910315 -9.06E-07
    26 OT DIIS     0.80E-01   11.7     0.00000188     -6886.1441910276  3.91E-09
    27 OT DIIS     0.80E-01   11.5     0.00000188     -6886.1441957985 -4.77E-06
    28 OT SD       0.80E-01   11.4     0.00000185     -6886.1442165133 -2.07E-05
    29 OT SD       0.80E-01   11.2     0.00000286     -6886.1442177835 -1.27E-06
    30 OT DIIS     0.80E-01   11.5     0.00001183     -6886.1442143466  3.44E-06
    31 OT SD       0.80E-01   11.5     0.00000178     -6886.1442261123 -1.18E-05
    32 OT DIIS     0.80E-01   11.6     0.00000259     -6886.1442274337 -1.32E-06
    33 OT DIIS     0.80E-01   11.2     0.00000177     -6886.1442350502 -7.62E-06
    34 OT DIIS     0.80E-01   11.2     0.00000185     -6886.1442572570 -2.22E-05
    35 OT SD       0.80E-01   11.5     0.00000215     -6886.1442785036 -2.12E-05
    36 OT SD       0.80E-01   11.3     0.00000428     -6886.1442793057 -8.02E-07
    37 OT DIIS     0.80E-01   11.5     0.00001988     -6886.1442666757  1.26E-05
    38 OT DIIS     0.80E-01   11.4     0.00000173     -6886.1442715906 -4.91E-06
    39 OT DIIS     0.80E-01   11.1     0.00000175     -6886.1442886247 -1.70E-05
    40 OT SD       0.80E-01   11.2     0.00000183     -6886.1442985112 -9.89E-06
    41 OT DIIS     0.80E-01   11.3     0.00000389     -6886.1442994471 -9.36E-07
    42 OT SD       0.80E-01   11.1     0.00000180     -6886.1443165901 -1.71E-05
    43 OT DIIS     0.80E-01   11.0     0.00000320     -6886.1443176256 -1.04E-06
    44 OT DIIS     0.80E-01   11.7     0.00000193     -6886.1443243661 -6.74E-06
    45 OT DIIS     0.80E-01   11.8     0.00000231     -6886.1443587295 -3.44E-05
    46 OT SD       0.80E-01   11.7     0.00000274     -6886.1443748873 -1.62E-05
    47 OT SD       0.80E-01   11.7     0.00000480     -6886.1443753069 -4.20E-07
    48 OT SD       0.80E-01   11.6     0.00001603     -6886.1443659195  9.39E-06
    49 OT DIIS     0.80E-01   11.7     0.00007762     -6886.1441435352  2.22E-04
    50 OT SD       0.80E-01   11.8     0.00000172     -6886.1443762579 -2.33E-04
    51 OT DIIS     0.80E-01   11.7     0.00000334     -6886.1443772245 -9.67E-07
    52 OT SD       0.80E-01   11.8     0.00000165     -6886.1443789992 -1.77E-06
    53 OT DIIS     0.80E-01   11.8     0.00000227     -6886.1443801755 -1.18E-06
    54 OT DIIS     0.80E-01   11.8     0.00000163     -6886.1443810118 -8.36E-07
    55 OT DIIS     0.80E-01   11.7     0.00000163     -6886.1443847008 -3.69E-06
    56 OT DIIS     0.80E-01   11.7     0.00000164     -6886.1443899583 -5.26E-06
    57 OT SD       0.80E-01   11.8     0.00000163     -6886.1443913982 -1.44E-06
    58 OT DIIS     0.80E-01   11.6     0.00000217     -6886.1443925713 -1.17E-06
    59 OT SD       0.80E-01   11.6     0.00000163     -6886.1443971747 -4.60E-06
    60 OT DIIS     0.80E-01   11.9     0.00000221     -6886.1443983368 -1.16E-06
    61 OT DIIS     0.80E-01   11.8     0.00000161     -6886.1444028741 -4.54E-06
    62 OT DIIS     0.80E-01   11.6     0.00000160     -6886.1444047738 -1.90E-06
    63 OT DIIS     0.80E-01   11.9     0.00000162     -6886.1444067814 -2.01E-06
    64 OT DIIS     0.80E-01   11.7     0.00000161     -6886.1444090967 -2.32E-06
    65 OT DIIS     0.80E-01   11.9     0.00000161     -6886.1444120903 -2.99E-06
    66 OT SD       0.80E-01   11.8     0.00000160     -6886.1444162301 -4.14E-06
    67 OT DIIS     0.80E-01   12.1     0.00000163     -6886.1444174672 -1.24E-06
    68 OT DIIS     0.80E-01   11.9     0.00000160     -6886.1444177269 -2.60E-07
    69 OT DIIS     0.80E-01   11.9     0.00000160     -6886.1444190052 -1.28E-06
    70 OT DIIS     0.80E-01   11.7     0.00000160     -6886.1444203384 -1.33E-06
    71 OT SD       0.80E-01   11.8     0.00000160     -6886.1444207452 -4.07E-07
    72 OT SD       0.80E-01   11.7     0.00000161     -6886.1444219849 -1.24E-06
    73 OT SD       0.80E-01   11.7     0.00000206     -6886.1444231694 -1.18E-06
    74 OT SD       0.80E-01   11.9     0.00000802     -6886.1444223418  8.28E-07
    75 OT DIIS     0.80E-01   11.9     0.00004755     -6886.1443480360  7.43E-05
    76 OT SD       0.80E-01   11.9     0.00000160     -6886.1444139219 -6.59E-05
    77 OT SD       0.80E-01   11.9     0.00000167     -6886.1444151535 -1.23E-06
    78 OT SD       0.80E-01   11.7     0.00000312     -6886.1444161438 -9.90E-07
    79 OT DIIS     0.80E-01   11.8     0.00001580     -6886.1444089758  7.17E-06
    80 OT SD       0.80E-01   12.0     0.00000160     -6886.1444066069  2.37E-06
    81 OT SD       0.80E-01   12.0     0.00000167     -6886.1444078357 -1.23E-06
    82 OT SD       0.80E-01   12.1     0.00000304     -6886.1444088367 -1.00E-06
    83 OT SD       0.80E-01   11.8     0.00001508     -6886.1444023777  6.46E-06
    84 OT DIIS     0.80E-01   11.8     0.00008895     -6886.1441360658  2.66E-04
    85 OT DIIS     0.80E-01   11.9     0.00000160     -6886.1444089942 -2.73E-04
    86 OT DIIS     0.80E-01   11.8     0.00000160     -6886.1444092800 -2.86E-07
    87 OT DIIS     0.80E-01   11.8     0.00000161     -6886.1444103902 -1.11E-06
    88 OT SD       0.80E-01   12.0     0.00000162     -6886.1444146710 -4.28E-06
    89 OT SD       0.80E-01   11.8     0.00000208     -6886.1444158453 -1.17E-06
    90 OT DIIS     0.80E-01   11.9     0.00000782     -6886.1444150675  7.78E-07
    91 OT DIIS     0.80E-01   11.7     0.00000160     -6886.1444145673  5.00E-07
    92 OT DIIS     0.80E-01   11.8     0.00000160     -6886.1444147145 -1.47E-07
    93 OT DIIS     0.80E-01   11.8     0.00000160     -6886.1444158675 -1.15E-06
    94 OT DIIS     0.80E-01   11.8     0.00000160     -6886.1444162468 -3.79E-07
    95 OT DIIS     0.80E-01   11.8     0.00000160     -6886.1444162877 -4.09E-08
    96 OT DIIS     0.80E-01   11.9     0.00000160     -6886.1444166904 -4.03E-07
    97 OT SD       0.80E-01   11.7     0.00000160     -6886.1444167153 -2.49E-08
    98 OT SD       0.80E-01   11.6     0.00000160     -6886.1444179524 -1.24E-06
    99 OT SD       0.80E-01   11.8     0.00000171     -6886.1444191772 -1.22E-06
   100 OT SD       0.80E-01   11.8     0.00000387     -6886.1444199896 -8.12E-07

  Leaving inner SCF loop after reaching   100 steps.


  Electronic density on regular grids:      -2431.9999999856        0.0000000144
  Core density on regular grids:             2431.9999999988       -0.0000000012
  Total charge density on r-space grids:        0.0000000132
  Total charge density g-space grids:           0.0000000132

  Overlap energy of the core charge distribution:               0.03242491031492
  Self energy of the core charge distribution:             -16017.19408509233290
  Core Hamiltonian energy:                                   4331.09454735066993
  Hartree energy:                                            6128.22468317749826
  Exchange-correlation energy:                              -1326.67585960447855
  Dispersion energy:                                           -1.62613073130533

  Total energy:                                             -6886.14441998963321

  outer SCF iter =    4 RMS gradient =   0.39E-05 energy =      -6886.1444199896

  ----------------------------------- OT ---------------------------------------
  Minimizer      : DIIS                : direct inversion
                                         in the iterative subspace
                                         using   7 DIIS vectors
                                         safer DIIS on
  Preconditioner : FULL_SINGLE_INVERSE : inversion of 
                                         H + eS - 2*(Sc)(c^T*H*c+const)(Sc)^T
  Precond_solver : DEFAULT
  stepsize       :    0.08000000                  energy_gap     :    0.08000000
  eps_taylor     :   0.10000E-15                  max_taylor     :             4
  ----------------------------------- OT ---------------------------------------

  Step     Update method      Time    Convergence         Total energy    Change
  ------------------------------------------------------------------------------
     1 OT DIIS     0.80E-01   31.0     0.00002119     -6886.1444063124  1.37E-05
     2 OT DIIS     0.80E-01   11.2     0.00012885     -6886.1438577457  5.49E-04
     3 OT DIIS     0.80E-01   11.3     0.00000614     -6886.1444215770 -5.64E-04
     4 OT DIIS     0.80E-01   11.0     0.00000187     -6886.1444232651 -1.69E-06
     5 OT DIIS     0.80E-01   11.0     0.00000160     -6886.1444235236 -2.59E-07
     6 OT SD       0.80E-01   11.4     0.00000160     -6886.1444237754 -2.52E-07
     7 OT SD       0.80E-01   11.4     0.00000160     -6886.1444250136 -1.24E-06
     8 OT SD       0.80E-01   11.3     0.00000171     -6886.1444262386 -1.22E-06
     9 OT SD       0.80E-01   11.4     0.00000377     -6886.1444270644 -8.26E-07
    10 OT DIIS     0.80E-01   11.7     0.00001944     -6886.1444152115  1.19E-05
    11 OT SD       0.80E-01   11.5     0.00000161     -6886.1444121599  3.05E-06
    12 OT SD       0.80E-01   11.3     0.00000179     -6886.1444133685 -1.21E-06
    13 OT SD       0.80E-01   11.1     0.00000446     -6886.1444139658 -5.97E-07
    14 OT DIIS     0.80E-01   11.6     0.00002327     -6886.1443963370  1.76E-05
    15 OT DIIS     0.80E-01   11.4     0.00000173     -6886.1443862236  1.01E-05
    16 OT DIIS     0.80E-01   11.6     0.00000160     -6886.1444119657 -2.57E-05
    17 OT SD       0.80E-01   11.4     0.00000160     -6886.1444139528 -1.99E-06
    18 OT SD       0.80E-01   11.4     0.00000163     -6886.1444151843 -1.23E-06
    19 OT SD       0.80E-01   11.3     0.00000240     -6886.1444163081 -1.12E-06
    20 OT SD       0.80E-01   11.4     0.00001046     -6886.1444138642  2.44E-06
    21 OT DIIS     0.80E-01   11.4     0.00006067     -6886.1442895131  1.24E-04
    22 OT SD       0.80E-01   11.7     0.00000160     -6886.1444030571 -1.14E-04
    23 OT SD       0.80E-01   11.5     0.00000165     -6886.1444042822 -1.23E-06
    24 OT SD       0.80E-01   11.2     0.00000282     -6886.1444053184 -1.04E-06
    25 OT SD       0.80E-01   11.8     0.00001295     -6886.1444006895  4.63E-06
    26 OT DIIS     0.80E-01   11.6     0.00007329     -6886.1442150478  1.86E-04
    27 OT DIIS     0.80E-01   11.3     0.00000159     -6886.1444055146 -1.90E-04
    28 OT SD       0.80E-01   11.2     0.00000159     -6886.1444056637 -1.49E-07
    29 OT SD       0.80E-01   11.2     0.00000159     -6886.1444068962 -1.23E-06
    30 OT SD       0.80E-01   11.4     0.00000160     -6886.1444081281 -1.23E-06
    31 OT SD       0.80E-01   11.2     0.00000181     -6886.1444093354 -1.21E-06
    32 OT SD       0.80E-01   11.4     0.00000531     -6886.1444096969 -3.62E-07
    33 OT DIIS     0.80E-01   11.4     0.00003036     -6886.1443800346  2.97E-05
    34 OT SD       0.80E-01   11.3     0.00000160     -6886.1443976849 -1.77E-05
    35 OT SD       0.80E-01   11.4     0.00000161     -6886.1443989141 -1.23E-06
    36 OT SD       0.80E-01   11.4     0.00000191     -6886.1444001027 -1.19E-06
    37 OT SD       0.80E-01   11.4     0.00000599     -6886.1444001586 -5.60E-08
    38 OT DIIS     0.80E-01   11.3     0.00003358     -6886.1443630143  3.71E-05
    39 OT DIIS     0.80E-01   11.6     0.00000159     -6886.1444007070 -3.77E-05
    40 OT DIIS     0.80E-01   11.6     0.00000159     -6886.1444011912 -4.84E-07
    41 OT SD       0.80E-01   11.4     0.00000159     -6886.1444013528 -1.62E-07
    42 OT SD       0.80E-01   11.5     0.00000160     -6886.1444025840 -1.23E-06
    43 OT SD       0.80E-01   11.3     0.00000167     -6886.1444038076 -1.22E-06
    44 OT SD       0.80E-01   11.5     0.00000336     -6886.1444047466 -9.39E-07
    45 OT DIIS     0.80E-01   11.4     0.00001810     -6886.1443951632  9.58E-06
    46 OT SD       0.80E-01   11.6     0.00000159     -6886.1443977942 -2.63E-06
    47 OT SD       0.80E-01   11.4     0.00000160     -6886.1443990250 -1.23E-06
    48 OT SD       0.80E-01   11.4     0.00000166     -6886.1444002491 -1.22E-06
    49 OT SD       0.80E-01   11.1     0.00000314     -6886.1444012350 -9.86E-07
    50 OT DIIS     0.80E-01   11.2     0.00001648     -6886.1443935062  7.73E-06
    51 OT DIIS     0.80E-01   11.6     0.00000159     -6886.1443994157 -5.91E-06
    52 OT SD       0.80E-01   11.4     0.00000159     -6886.1444000515 -6.36E-07
    53 OT SD       0.80E-01   11.5     0.00000160     -6886.1444012822 -1.23E-06
    54 OT SD       0.80E-01   11.3     0.00000164     -6886.1444025074 -1.23E-06
    55 OT SD       0.80E-01   11.3     0.00000264     -6886.1444035773 -1.07E-06
    56 OT DIIS     0.80E-01   11.3     0.00001170     -6886.1444000309  3.55E-06
    57 OT SD       0.80E-01   11.3     0.00000159     -6886.1443975400  2.49E-06
    58 OT SD       0.80E-01   11.2     0.00000161     -6886.1443987693 -1.23E-06
    59 OT SD       0.80E-01   11.4     0.00000197     -6886.1443999534 -1.18E-06
    60 OT SD       0.80E-01   11.4     0.00000695     -6886.1443996185  3.35E-07
    61 OT DIIS     0.80E-01   11.2     0.00004007     -6886.1443465654  5.31E-05
    62 OT DIIS     0.80E-01   11.2     0.00000159     -6886.1443992025 -5.26E-05
    63 OT SD       0.80E-01   11.3     0.00000159     -6886.1443992042 -1.75E-09
    64 OT SD       0.80E-01   11.2     0.00000159     -6886.1444004350 -1.23E-06
    65 OT SD       0.80E-01   11.1     0.00000160     -6886.1444016652 -1.23E-06
    66 OT SD       0.80E-01   11.2     0.00000179     -6886.1444028733 -1.21E-06
    67 OT SD       0.80E-01   11.2     0.00000500     -6886.1444033390 -4.66E-07
    68 OT DIIS     0.80E-01   11.2     0.00002843     -6886.1443775477  2.58E-05
    69 OT SD       0.80E-01   11.3     0.00000159     -6886.1443961430 -1.86E-05
    70 OT SD       0.80E-01   11.3     0.00000160     -6886.1443973728 -1.23E-06
    71 OT SD       0.80E-01   11.4     0.00000173     -6886.1443985867 -1.21E-06
    72 OT SD       0.80E-01   11.3     0.00000397     -6886.1443993458 -7.59E-07
    73 OT DIIS     0.80E-01   11.1     0.00002081     -6886.1443856190  1.37E-05
    74 OT DIIS     0.80E-01   11.3     0.00000159     -6886.1443985380 -1.29E-05
    75 OT SD       0.80E-01   11.2     0.00000159     -6886.1443985659 -2.79E-08
    76 OT SD       0.80E-01   11.3     0.00000159     -6886.1443997963 -1.23E-06
    77 OT SD       0.80E-01   11.1     0.00000159     -6886.1444010266 -1.23E-06
    78 OT SD       0.80E-01   11.4     0.00000162     -6886.1444022541 -1.23E-06
    79 OT SD       0.80E-01   11.3     0.00000212     -6886.1444034104 -1.16E-06
    80 OT SD       0.80E-01   11.3     0.00000755     -6886.1444026479  7.63E-07
    81 OT DIIS     0.80E-01   11.2     0.00004109     -6886.1443444961  5.82E-05
    82 OT DIIS     0.80E-01   11.1     0.00000160     -6886.1443938680 -4.94E-05
    83 OT DIIS     0.80E-01   11.4     0.00000159     -6886.1443944485 -5.81E-07
    84 OT SD       0.80E-01   11.2     0.00000160     -6886.1443963642 -1.92E-06
    85 OT SD       0.80E-01   11.1     0.00000165     -6886.1443975870 -1.22E-06
    86 OT SD       0.80E-01   11.2     0.00000281     -6886.1443986220 -1.03E-06
    87 OT DIIS     0.80E-01   11.1     0.00001293     -6886.1443940006  4.62E-06
    88 OT SD       0.80E-01   11.4     0.00000159     -6886.1443968010 -2.80E-06
    89 OT DIIS     0.80E-01   11.2     0.00000160     -6886.1443980299 -1.23E-06
    90 OT SD       0.80E-01   11.2     0.00000160     -6886.1443991921 -1.16E-06
    91 OT SD       0.80E-01   11.2     0.00000168     -6886.1444004121 -1.22E-06
    92 OT DIIS     0.80E-01   11.1     0.00000345     -6886.1444013246 -9.12E-07
    93 OT DIIS     0.80E-01   11.4     0.00000159     -6886.1444030657 -1.74E-06
    94 OT DIIS     0.80E-01   11.5     0.00000159     -6886.1444030705 -4.78E-09
    95 OT SD       0.80E-01   11.3     0.00000159     -6886.1444035316 -4.61E-07
    96 OT SD       0.80E-01   11.4     0.00000160     -6886.1444047608 -1.23E-06
    97 OT SD       0.80E-01   11.4     0.00000171     -6886.1444059768 -1.22E-06
    98 OT SD       0.80E-01   11.2     0.00000400     -6886.1444067482 -7.71E-07
    99 OT DIIS     0.80E-01   11.3     0.00002181     -6886.1443919706  1.48E-05
   100 OT SD       0.80E-01   11.5     0.00000160     -6886.1443914152  5.55E-07

  Leaving inner SCF loop after reaching   100 steps.


  Electronic density on regular grids:      -2431.9999999856        0.0000000144
  Core density on regular grids:             2431.9999999988       -0.0000000012
  Total charge density on r-space grids:        0.0000000133
  Total charge density g-space grids:           0.0000000133

  Overlap energy of the core charge distribution:               0.03242491031492
  Self energy of the core charge distribution:             -16017.19408509233290
  Core Hamiltonian energy:                                   4331.09465297314728
  Hartree energy:                                            6128.22464453332395
  Exchange-correlation energy:                              -1326.67589800833139
  Dispersion energy:                                           -1.62613073130533

  Total energy:                                             -6886.14439141518505

  outer SCF iter =    5 RMS gradient =   0.16E-05 energy =      -6886.1443914152

  ----------------------------------- OT ---------------------------------------
  Minimizer      : DIIS                : direct inversion
                                         in the iterative subspace
                                         using   7 DIIS vectors
                                         safer DIIS on
  Preconditioner : FULL_SINGLE_INVERSE : inversion of 
                                         H + eS - 2*(Sc)(c^T*H*c+const)(Sc)^T
  Precond_solver : DEFAULT
  stepsize       :    0.08000000                  energy_gap     :    0.08000000
  eps_taylor     :   0.10000E-15                  max_taylor     :             4
  ----------------------------------- OT ---------------------------------------

  Step     Update method      Time    Convergence         Total energy    Change
  ------------------------------------------------------------------------------
     1 OT DIIS     0.80E-01   30.3     0.00000168     -6886.1443926315 -1.22E-06
     2 OT DIIS     0.80E-01   11.2     0.00000313     -6886.1443935900 -9.58E-07
     3 OT DIIS     0.80E-01   11.2     0.00000166     -6886.1443940555 -4.66E-07
     4 OT DIIS     0.80E-01   11.3     0.00000159     -6886.1443943436 -2.88E-07
     5 OT DIIS     0.80E-01   11.3     0.00000159     -6886.1443946801 -3.36E-07
     6 OT SD       0.80E-01   11.1     0.00000159     -6886.1443949325 -2.52E-07
     7 OT SD       0.80E-01   11.2     0.00000159     -6886.1443961566 -1.22E-06
     8 OT SD       0.80E-01   11.4     0.00000160     -6886.1443973800 -1.22E-06
     9 OT SD       0.80E-01   11.2     0.00000177     -6886.1443985825 -1.20E-06
    10 OT SD       0.80E-01   11.2     0.00000468     -6886.1443991321 -5.50E-07
    11 OT DIIS     0.80E-01   11.2     0.00002566     -6886.1443778654  2.13E-05
    12 OT SD       0.80E-01   11.1     0.00000159     -6886.1443917876 -1.39E-05
    13 OT SD       0.80E-01   11.0     0.00000159     -6886.1443930111 -1.22E-06
    14 OT SD       0.80E-01   11.4     0.00000164     -6886.1443942291 -1.22E-06
    15 OT SD       0.80E-01   11.3     0.00000291     -6886.1443952540 -1.02E-06
    16 OT DIIS     0.80E-01   11.4     0.00001491     -6886.1443891922  6.06E-06
    17 OT SD       0.80E-01   11.3     0.00000159     -6886.1443936333 -4.44E-06
    18 OT SD       0.80E-01   11.2     0.00000159     -6886.1443948570 -1.22E-06
    19 OT SD       0.80E-01   11.1     0.00000161     -6886.1443960790 -1.22E-06
    20 OT SD       0.80E-01   11.3     0.00000201     -6886.1443972484 -1.17E-06
    21 OT SD       0.80E-01   11.5     0.00000709     -6886.1443967906  4.58E-07
    22 OT DIIS     0.80E-01   11.3     0.00003954     -6886.1443436790  5.31E-05
    23 OT SD       0.80E-01   11.2     0.00000159     -6886.1443920642 -4.84E-05
    24 OT SD       0.80E-01   11.3     0.00000159     -6886.1443932877 -1.22E-06
    25 OT SD       0.80E-01   11.4     0.00000164     -6886.1443945057 -1.22E-06
    26 OT SD       0.80E-01   11.3     0.00000279     -6886.1443955477 -1.04E-06
    27 OT DIIS     0.80E-01   11.4     0.00001362     -6886.1443905357  5.01E-06
    28 OT SD       0.80E-01   11.4     0.00000159     -6886.1443932153 -2.68E-06
    29 OT SD       0.80E-01   11.3     0.00000159     -6886.1443944388 -1.22E-06
    30 OT SD       0.80E-01   11.3     0.00000162     -6886.1443956587 -1.22E-06
    31 OT SD       0.80E-01   11.4     0.00000252     -6886.1443967517 -1.09E-06
    32 OT DIIS     0.80E-01   11.4     0.00001166     -6886.1443934372  3.31E-06
    33 OT SD       0.80E-01   11.1     0.00000159     -6886.1443922059  1.23E-06
    34 OT SD       0.80E-01   11.2     0.00000159     -6886.1443934293 -1.22E-06
    35 OT SD       0.80E-01   11.1     0.00000163     -6886.1443946486 -1.22E-06
    36 OT SD       0.80E-01   11.3     0.00000262     -6886.1443957247 -1.08E-06
    37 OT DIIS     0.80E-01   11.4     0.00001248     -6886.1443917671  3.96E-06
    38 OT SD       0.80E-01   11.2     0.00000159     -6886.1443926537 -8.87E-07
    39 OT SD       0.80E-01   11.2     0.00000159     -6886.1443938770 -1.22E-06
    40 OT SD       0.80E-01   11.5     0.00000164     -6886.1443950944 -1.22E-06
    41 OT SD       0.80E-01   11.3     0.00000292     -6886.1443961118 -1.02E-06
    42 OT DIIS     0.80E-01   11.4     0.00001446     -6886.1443902831  5.83E-06
    43 OT SD       0.80E-01   11.0     0.00000159     -6886.1443922371 -1.95E-06
    44 OT SD       0.80E-01   11.1     0.00000159     -6886.1443934605 -1.22E-06
    45 OT SD       0.80E-01   11.1     0.00000160     -6886.1443946823 -1.22E-06
    46 OT SD       0.80E-01   11.3     0.00000206     -6886.1443958473 -1.17E-06
    47 OT SD       0.80E-01   11.2     0.00000788     -6886.1443950496  7.98E-07
    48 OT DIIS     0.80E-01   11.3     0.00004617     -6886.1443246038  7.04E-05
    49 OT SD       0.80E-01   11.3     0.00000159     -6886.1443920839 -6.75E-05
    50 OT SD       0.80E-01   11.1     0.00000159     -6886.1443933071 -1.22E-06
    51 OT SD       0.80E-01   11.1     0.00000164     -6886.1443945246 -1.22E-06
    52 OT SD       0.80E-01   11.1     0.00000287     -6886.1443955525 -1.03E-06
    53 OT DIIS     0.80E-01   11.1     0.00001435     -6886.1443899182  5.63E-06
    54 OT SD       0.80E-01   11.1     0.00000159     -6886.1443926798 -2.76E-06
    55 OT SD       0.80E-01   11.2     0.00000159     -6886.1443939031 -1.22E-06
    56 OT SD       0.80E-01   11.1     0.00000163     -6886.1443951224 -1.22E-06
    57 OT SD       0.80E-01   11.1     0.00000255     -6886.1443962093 -1.09E-06
    58 OT DIIS     0.80E-01   11.2     0.00001184     -6886.1443927373  3.47E-06
    59 OT SD       0.80E-01   11.2     0.00000159     -6886.1443919441  7.93E-07
    60 OT SD       0.80E-01   11.2     0.00000159     -6886.1443931673 -1.22E-06
    61 OT SD       0.80E-01   11.1     0.00000161     -6886.1443943883 -1.22E-06
    62 OT SD       0.80E-01   11.1     0.00000218     -6886.1443955357 -1.15E-06
    63 OT DIIS     0.80E-01   11.4     0.00000894     -6886.1443941372  1.40E-06
    64 OT SD       0.80E-01   11.4     0.00000159     -6886.1443921610  1.98E-06
    65 OT SD       0.80E-01   11.0     0.00000159     -6886.1443933841 -1.22E-06
    66 OT SD       0.80E-01   11.1     0.00000165     -6886.1443946006 -1.22E-06
    67 OT SD       0.80E-01   11.5     0.00000299     -6886.1443956022 -1.00E-06
    68 OT DIIS     0.80E-01   11.1     0.00001488     -6886.1443893257  6.28E-06
    69 OT SD       0.80E-01   11.1     0.00000159     -6886.1443919602 -2.63E-06
    70 OT SD       0.80E-01   11.5     0.00000159     -6886.1443931833 -1.22E-06
    71 OT SD       0.80E-01   11.5     0.00000162     -6886.1443944028 -1.22E-06
    72 OT SD       0.80E-01   11.4     0.00000245     -6886.1443955047 -1.10E-06
    73 OT DIIS     0.80E-01   11.6     0.00001098     -6886.1443926688  2.84E-06
    74 OT SD       0.80E-01   11.5     0.00000159     -6886.1443919173  7.51E-07
    75 OT SD       0.80E-01   11.3     0.00000159     -6886.1443931404 -1.22E-06
    76 OT SD       0.80E-01   11.1     0.00000162     -6886.1443943606 -1.22E-06
    77 OT SD       0.80E-01   11.2     0.00000234     -6886.1443954820 -1.12E-06
    78 OT DIIS     0.80E-01   11.2     0.00001031     -6886.1443931844  2.30E-06
    79 OT SD       0.80E-01   11.4     0.00000159     -6886.1443918886  1.30E-06
    80 OT SD       0.80E-01   11.1     0.00000159     -6886.1443931117 -1.22E-06
    81 OT SD       0.80E-01   11.2     0.00000161     -6886.1443943325 -1.22E-06
    82 OT SD       0.80E-01   11.4     0.00000216     -6886.1443954803 -1.15E-06
    83 OT DIIS     0.80E-01   11.1     0.00000867     -6886.1443942020  1.28E-06
    84 OT SD       0.80E-01   11.4     0.00000159     -6886.1443917975  2.40E-06
    85 OT SD       0.80E-01   11.3     0.00000159     -6886.1443930204 -1.22E-06
    86 OT SD       0.80E-01   11.8     0.00000163     -6886.1443942392 -1.22E-06
    87 OT SD       0.80E-01   11.2     0.00000256     -6886.1443953237 -1.08E-06
    88 OT DIIS     0.80E-01   11.3     0.00001184     -6886.1443918506  3.47E-06
    89 OT SD       0.80E-01   11.2     0.00000159     -6886.1443917901  6.06E-08
    90 OT SD       0.80E-01   11.4     0.00000159     -6886.1443930130 -1.22E-06
    91 OT SD       0.80E-01   11.5     0.00000162     -6886.1443942325 -1.22E-06
    92 OT SD       0.80E-01   11.3     0.00000241     -6886.1443953403 -1.11E-06
    93 OT DIIS     0.80E-01   11.3     0.00001063     -6886.1443927510  2.59E-06
    94 OT SD       0.80E-01   11.5     0.00000159     -6886.1443916864  1.06E-06
    95 OT SD       0.80E-01   11.6     0.00000159     -6886.1443929093 -1.22E-06
    96 OT SD       0.80E-01   11.1     0.00000161     -6886.1443941303 -1.22E-06
    97 OT SD       0.80E-01   11.3     0.00000212     -6886.1443952842 -1.15E-06
    98 OT SD       0.80E-01   11.5     0.00000839     -6886.1443941864  1.10E-06
    99 OT DIIS     0.80E-01   11.2     0.00004882     -6886.1443147613  7.94E-05
   100 OT SD       0.80E-01   11.2     0.00000159     -6886.1443914893 -7.67E-05

  Leaving inner SCF loop after reaching   100 steps.


  Electronic density on regular grids:      -2431.9999999856        0.0000000144
  Core density on regular grids:             2431.9999999988       -0.0000000012
  Total charge density on r-space grids:        0.0000000133
  Total charge density g-space grids:           0.0000000133

  Overlap energy of the core charge distribution:               0.03242491031492
  Self energy of the core charge distribution:             -16017.19408509233290
  Core Hamiltonian energy:                                   4331.09462729559709
  Hartree energy:                                            6128.22466382184484
  Exchange-correlation energy:                              -1326.67589169340431
  Dispersion energy:                                           -1.62613073130533

  Total energy:                                             -6886.14439148928614

  outer SCF iter =    6 RMS gradient =   0.16E-05 energy =      -6886.1443914893

  ----------------------------------- OT ---------------------------------------
  Minimizer      : DIIS                : direct inversion
                                         in the iterative subspace
                                         using   7 DIIS vectors
                                         safer DIIS on
  Preconditioner : FULL_SINGLE_INVERSE : inversion of 
                                         H + eS - 2*(Sc)(c^T*H*c+const)(Sc)^T
  Precond_solver : DEFAULT
  stepsize       :    0.08000000                  energy_gap     :    0.08000000
  eps_taylor     :   0.10000E-15                  max_taylor     :             4
  ----------------------------------- OT ---------------------------------------

  Step     Update method      Time    Convergence         Total energy    Change
  ------------------------------------------------------------------------------
     1 OT DIIS     0.80E-01   30.4     0.00000159     -6886.1443927119 -1.22E-06
     2 OT DIIS     0.80E-01   11.2     0.00000166     -6886.1443939245 -1.21E-06
     3 OT DIIS     0.80E-01   11.2     0.00000159     -6886.1443941196 -1.95E-07
     4 OT DIIS     0.80E-01   11.0     0.00000159     -6886.1443943805 -2.61E-07
     5 OT SD       0.80E-01   11.1     0.00000159     -6886.1443944732 -9.27E-08
     6 OT SD       0.80E-01   11.1     0.00000159     -6886.1443956940 -1.22E-06
     7 OT SD       0.80E-01   11.3     0.00000160     -6886.1443969134 -1.22E-06
     8 OT SD       0.80E-01   11.1     0.00000201     -6886.1443980835 -1.17E-06
     9 OT SD       0.80E-01   11.2     0.00000754     -6886.1443974887  5.95E-07
    10 OT DIIS     0.80E-01   11.5     0.00004486     -6886.1443320145  6.55E-05
    11 OT SD       0.80E-01   11.3     0.00000159     -6886.1443898793 -5.79E-05
    12 OT SD       0.80E-01   11.5     0.00000159     -6886.1443910992 -1.22E-06
    13 OT SD       0.80E-01   11.4     0.00000168     -6886.1443923089 -1.21E-06
    14 OT SD       0.80E-01   11.4     0.00000339     -6886.1443932117 -9.03E-07
    15 OT DIIS     0.80E-01   11.5     0.00001725     -6886.1443841897  9.02E-06
    16 OT SD       0.80E-01   11.3     0.00000159     -6886.1443924541 -8.26E-06
    17 OT SD       0.80E-01   11.1     0.00000159     -6886.1443936746 -1.22E-06
    18 OT SD       0.80E-01   11.1     0.00000159     -6886.1443948943 -1.22E-06
    19 OT SD       0.80E-01   11.1     0.00000176     -6886.1443960939 -1.20E-06
    20 OT SD       0.80E-01   11.1     0.00000456     -6886.1443966737 -5.80E-07
    21 OT DIIS     0.80E-01   11.2     0.00002495     -6886.1443766883  2.00E-05
    22 OT SD       0.80E-01   11.0     0.00000159     -6886.1443903254 -1.36E-05
    23 OT SD       0.80E-01   11.5     0.00000159     -6886.1443915450 -1.22E-06
    24 OT SD       0.80E-01   11.5     0.00000171     -6886.1443927508 -1.21E-06
    25 OT SD       0.80E-01   11.3     0.00000392     -6886.1443935229 -7.72E-07
    26 OT DIIS     0.80E-01   11.2     0.00002085     -6886.1443798876  1.36E-05
    27 OT SD       0.80E-01   11.3     0.00000159     -6886.1443919863 -1.21E-05
    28 OT SD       0.80E-01   11.2     0.00000159     -6886.1443932065 -1.22E-06
    29 OT SD       0.80E-01   11.1     0.00000160     -6886.1443944254 -1.22E-06
    30 OT SD       0.80E-01   11.3     0.00000192     -6886.1443956049 -1.18E-06
    31 OT SD       0.80E-01   11.3     0.00000644     -6886.1443954869  1.18E-07
    32 OT DIIS     0.80E-01   11.3     0.00003705     -6886.1443503867  4.51E-05
    33 OT SD       0.80E-01   11.2     0.00000159     -6886.1443901585 -3.98E-05
    34 OT SD       0.80E-01   11.3     0.00000159     -6886.1443913779 -1.22E-06
    35 OT SD       0.80E-01   11.3     0.00000174     -6886.1443925801 -1.20E-06
    36 OT SD       0.80E-01   11.2     0.00000442     -6886.1443932157 -6.36E-07
    37 OT DIIS     0.80E-01   10.9     0.00002429     -6886.1443744192  1.88E-05
    38 OT SD       0.80E-01   11.2     0.00000159     -6886.1443916579 -1.72E-05
    39 OT SD       0.80E-01   11.6     0.00000159     -6886.1443928779 -1.22E-06
    40 OT SD       0.80E-01   11.1     0.00000160     -6886.1443940969 -1.22E-06
    41 OT SD       0.80E-01   11.1     0.00000189     -6886.1443952805 -1.18E-06
    42 OT SD       0.80E-01   11.2     0.00000613     -6886.1443952903 -9.75E-09
    43 OT DIIS     0.80E-01   11.0     0.00003471     -6886.1443553665  3.99E-05
    44 OT SD       0.80E-01   11.0     0.00000159     -6886.1443899238 -3.46E-05
    45 OT SD       0.80E-01   10.9     0.00000159     -6886.1443911431 -1.22E-06
    46 OT SD       0.80E-01   11.1     0.00000173     -6886.1443923463 -1.20E-06
    47 OT SD       0.80E-01   11.0     0.00000425     -6886.1443930302 -6.84E-07
    48 OT DIIS     0.80E-01   11.0     0.00002339     -6886.1443758244  1.72E-05
    49 OT SD       0.80E-01   11.1     0.00000159     -6886.1443914414 -1.56E-05
    50 OT SD       0.80E-01   11.1     0.00000159     -6886.1443926613 -1.22E-06
    51 OT SD       0.80E-01   11.2     0.00000159     -6886.1443938807 -1.22E-06
    52 OT SD       0.80E-01   11.2     0.00000175     -6886.1443950820 -1.20E-06
    53 OT SD       0.80E-01   11.0     0.00000460     -6886.1443956691 -5.87E-07
    54 OT DIIS     0.80E-01   11.1     0.00002594     -6886.1443744120  2.13E-05
    55 OT SD       0.80E-01   11.2     0.00000159     -6886.1443896074 -1.52E-05
    56 OT SD       0.80E-01   11.0     0.00000159     -6886.1443908264 -1.22E-06
    57 OT SD       0.80E-01   10.9     0.00000176     -6886.1443920261 -1.20E-06
    58 OT SD       0.80E-01   11.1     0.00000459     -6886.1443926043 -5.78E-07
    59 OT DIIS     0.80E-01   11.0     0.00002523     -6886.1443721563  2.04E-05
    60 OT SD       0.80E-01   11.1     0.00000159     -6886.1443913440 -1.92E-05
    61 OT SD       0.80E-01   11.1     0.00000159     -6886.1443925637 -1.22E-06
    62 OT SD       0.80E-01   11.0     0.00000159     -6886.1443937829 -1.22E-06
    63 OT SD       0.80E-01   10.9     0.00000176     -6886.1443949824 -1.20E-06
    64 OT SD       0.80E-01   11.1     0.00000474     -6886.1443955224 -5.40E-07
    65 OT DIIS     0.80E-01   10.8     0.00002659     -6886.1443729654  2.26E-05
    66 OT SD       0.80E-01   11.0     0.00000159     -6886.1443892406 -1.63E-05
    67 OT SD       0.80E-01   11.2     0.00000159     -6886.1443904592 -1.22E-06
    68 OT SD       0.80E-01   11.0     0.00000179     -6886.1443916548 -1.20E-06
    69 OT SD       0.80E-01   11.2     0.00000494     -6886.1443921153 -4.60E-07
    70 OT DIIS     0.80E-01   11.2     0.00002739     -6886.1443677708  2.43E-05
    71 OT DIIS     0.80E-01   11.0     0.00000159     -6886.1443911760 -2.34E-05
    72 OT SD       0.80E-01   11.0     0.00000159     -6886.1443911843 -8.35E-09
    73 OT SD       0.80E-01   11.1     0.00000159     -6886.1443924037 -1.22E-06
    74 OT SD       0.80E-01   11.1     0.00000160     -6886.1443936219 -1.22E-06
    75 OT SD       0.80E-01   11.2     0.00000194     -6886.1443947980 -1.18E-06
    76 OT SD       0.80E-01   11.1     0.00000672     -6886.1443945578  2.40E-07
    77 OT DIIS     0.80E-01   11.0     0.00003863     -6886.1443452268  4.93E-05
    78 OT SD       0.80E-01   10.9     0.00000159     -6886.1443889712 -4.37E-05
    79 OT SD       0.80E-01   11.0     0.00000160     -6886.1443901892 -1.22E-06
    80 OT SD       0.80E-01   11.0     0.00000187     -6886.1443913743 -1.19E-06
    81 OT SD       0.80E-01   11.1     0.00000586     -6886.1443914949 -1.21E-07
    82 OT DIIS     0.80E-01   11.1     0.00003313     -6886.1443553851  3.61E-05
    83 OT SD       0.80E-01   11.1     0.00000159     -6886.1443909814 -3.56E-05
    84 OT SD       0.80E-01   11.1     0.00000159     -6886.1443922006 -1.22E-06
    85 OT SD       0.80E-01   11.0     0.00000159     -6886.1443934191 -1.22E-06
    86 OT SD       0.80E-01   11.2     0.00000177     -6886.1443946158 -1.20E-06
    87 OT SD       0.80E-01   11.1     0.00000465     -6886.1443951561 -5.40E-07
    88 OT DIIS     0.80E-01   11.0     0.00002498     -6886.1443747640  2.04E-05
    89 OT SD       0.80E-01   11.0     0.00000159     -6886.1443885577 -1.38E-05
    90 OT SD       0.80E-01   11.4     0.00000159     -6886.1443897760 -1.22E-06
    91 OT SD       0.80E-01   11.1     0.00000172     -6886.1443909788 -1.20E-06
    92 OT SD       0.80E-01   11.0     0.00000401     -6886.1443917154 -7.37E-07
[...]
     4 OT DIIS     0.80E-01   10.9     0.00000154     -6886.1443330230 -2.18E-07
     5 OT DIIS     0.80E-01   10.8     0.00000154     -6886.1443332904 -2.67E-07
     6 OT SD       0.80E-01   10.8     0.00000154     -6886.1443333019 -1.15E-08
     7 OT SD       0.80E-01   10.8     0.00000154     -6886.1443344480 -1.15E-06
     8 OT SD       0.80E-01   10.8     0.00000155     -6886.1443355925 -1.14E-06
     9 OT SD       0.80E-01   10.8     0.00000196     -6886.1443366857 -1.09E-06
    10 OT SD       0.80E-01   10.9     0.00000707     -6886.1443361679  5.18E-07
    11 OT DIIS     0.80E-01   10.9     0.00003997     -6886.1442823981  5.38E-05
    12 OT DIIS     0.80E-01   10.8     0.00000154     -6886.1443275058 -4.51E-05
    13 OT DIIS     0.80E-01   10.8     0.00000154     -6886.1443284668 -9.61E-07
    14 OT SD       0.80E-01   10.7     0.00000154     -6886.1443288995 -4.33E-07
    15 OT SD       0.80E-01   10.8     0.00000156     -6886.1443300427 -1.14E-06
    16 OT SD       0.80E-01   10.8     0.00000215     -6886.1443311094 -1.07E-06
    17 OT DIIS     0.80E-01   10.7     0.00000895     -6886.1443296011  1.51E-06
    18 OT SD       0.80E-01   10.8     0.00000154     -6886.1443308701 -1.27E-06
    19 OT SD       0.80E-01   10.8     0.00000154     -6886.1443320160 -1.15E-06
    20 OT SD       0.80E-01   10.9     0.00000154     -6886.1443331617 -1.15E-06
    21 OT SD       0.80E-01   10.9     0.00000160     -6886.1443343011 -1.14E-06
    22 OT SD       0.80E-01   10.8     0.00000284     -6886.1443352455 -9.44E-07
    23 OT DIIS     0.80E-01   10.8     0.00001374     -6886.1443298875  5.36E-06
    24 OT SD       0.80E-01   10.8     0.00000154     -6886.1443287989  1.09E-06
    25 OT SD       0.80E-01   10.8     0.00000154     -6886.1443299445 -1.15E-06
    26 OT SD       0.80E-01   10.8     0.00000155     -6886.1443310883 -1.14E-06
    27 OT SD       0.80E-01   10.9     0.00000199     -6886.1443321772 -1.09E-06
    28 OT DIIS     0.80E-01   10.9     0.00000750     -6886.1443314706  7.07E-07
    29 OT SD       0.80E-01   10.8     0.00000154     -6886.1443301339  1.34E-06
    30 OT SD       0.80E-01   10.8     0.00000154     -6886.1443312797 -1.15E-06
    31 OT SD       0.80E-01   10.7     0.00000155     -6886.1443324242 -1.14E-06
    32 OT SD       0.80E-01   10.9     0.00000185     -6886.1443335331 -1.11E-06
    33 OT SD       0.80E-01   11.0     0.00000612     -6886.1443334733  5.98E-08
    34 OT DIIS     0.80E-01   10.7     0.00003514     -6886.1442928891  4.06E-05
    35 OT SD       0.80E-01   10.8     0.00000154     -6886.1443289963 -3.61E-05
    36 OT SD       0.80E-01   10.8     0.00000154     -6886.1443301418 -1.15E-06
    37 OT SD       0.80E-01   10.8     0.00000158     -6886.1443312830 -1.14E-06
    38 OT SD       0.80E-01   10.9     0.00000252     -6886.1443322902 -1.01E-06
    39 OT DIIS     0.80E-01   10.8     0.00001163     -6886.1443288570  3.43E-06
    40 OT SD       0.80E-01   10.8     0.00000154     -6886.1443298839 -1.03E-06
    41 OT SD       0.80E-01   10.9     0.00000154     -6886.1443310295 -1.15E-06
    42 OT SD       0.80E-01   10.7     0.00000155     -6886.1443321737 -1.14E-06
    43 OT SD       0.80E-01   10.9     0.00000197     -6886.1443332677 -1.09E-06
    44 OT SD       0.80E-01   10.8     0.00000747     -6886.1443326073  6.60E-07
    45 OT DIIS     0.80E-01   10.7     0.00004383     -6886.1442692340  6.34E-05
    46 OT SD       0.80E-01   10.8     0.00000154     -6886.1443289842 -5.98E-05
    47 OT SD       0.80E-01   10.8     0.00000154     -6886.1443301295 -1.15E-06
    48 OT SD       0.80E-01   10.8     0.00000161     -6886.1443312676 -1.14E-06
    49 OT SD       0.80E-01   10.9     0.00000306     -6886.1443321714 -9.04E-07
    50 OT DIIS     0.80E-01   10.9     0.00001555     -6886.1443251305  7.04E-06
    51 OT SD       0.80E-01   10.8     0.00000154     -6886.1443298540 -4.72E-06
    52 OT SD       0.80E-01   10.7     0.00000154     -6886.1443309995 -1.15E-06
    53 OT SD       0.80E-01   10.8     0.00000155     -6886.1443321434 -1.14E-06
    54 OT SD       0.80E-01   10.7     0.00000198     -6886.1443332343 -1.09E-06
    55 OT SD       0.80E-01   10.9     0.00000732     -6886.1443325973  6.37E-07
    56 OT DIIS     0.80E-01   10.8     0.00004135     -6886.1442746393  5.80E-05
    57 OT SD       0.80E-01   10.9     0.00000154     -6886.1443288821 -5.42E-05
    58 OT SD       0.80E-01   10.8     0.00000154     -6886.1443300274 -1.15E-06
    59 OT SD       0.80E-01   10.7     0.00000159     -6886.1443311675 -1.14E-06
    60 OT SD       0.80E-01   10.7     0.00000267     -6886.1443321456 -9.78E-07
    61 OT DIIS     0.80E-01   10.8     0.00001279     -6886.1443277500  4.40E-06
    62 OT SD       0.80E-01   10.8     0.00000154     -6886.1443299148 -2.16E-06
    63 OT SD       0.80E-01   10.8     0.00000154     -6886.1443310603 -1.15E-06
    64 OT SD       0.80E-01   10.8     0.00000155     -6886.1443322048 -1.14E-06
    65 OT SD       0.80E-01   10.7     0.00000183     -6886.1443333165 -1.11E-06
    66 OT SD       0.80E-01   10.8     0.00000597     -6886.1443333205 -4.01E-09
    67 OT DIIS     0.80E-01   10.7     0.00003405     -6886.1442950657  3.83E-05
    68 OT SD       0.80E-01   10.9     0.00000154     -6886.1443287310 -3.37E-05
    69 OT SD       0.80E-01   10.8     0.00000154     -6886.1443298761 -1.15E-06
    70 OT SD       0.80E-01   10.8     0.00000160     -6886.1443310145 -1.14E-06
    71 OT SD       0.80E-01   10.9     0.00000293     -6886.1443319418 -9.27E-07
    72 OT DIIS     0.80E-01   10.7     0.00001445     -6886.1443259474  5.99E-06
    73 OT SD       0.80E-01   10.8     0.00000154     -6886.1443299936 -4.05E-06
    74 OT SD       0.80E-01   11.0     0.00000154     -6886.1443311390 -1.15E-06
    75 OT SD       0.80E-01   10.8     0.00000155     -6886.1443322832 -1.14E-06
    76 OT SD       0.80E-01   10.9     0.00000188     -6886.1443333878 -1.10E-06
    77 OT SD       0.80E-01   10.9     0.00000647     -6886.1443331754  2.12E-07
    78 OT DIIS     0.80E-01   10.7     0.00003690     -6886.1442878986  4.53E-05
    79 OT SD       0.80E-01   10.7     0.00000154     -6886.1443286067 -4.07E-05
    80 OT SD       0.80E-01   11.0     0.00000154     -6886.1443297518 -1.15E-06
    81 OT SD       0.80E-01   10.9     0.00000161     -6886.1443308894 -1.14E-06
    82 OT SD       0.80E-01   10.8     0.00000306     -6886.1443317907 -9.01E-07
    83 OT DIIS     0.80E-01   10.8     0.00001540     -6886.1443248373  6.95E-06
    84 OT SD       0.80E-01   10.9     0.00000154     -6886.1443299786 -5.14E-06
    85 OT SD       0.80E-01   10.7     0.00000154     -6886.1443311239 -1.15E-06
    86 OT SD       0.80E-01   10.9     0.00000155     -6886.1443322682 -1.14E-06
    87 OT SD       0.80E-01   10.8     0.00000183     -6886.1443333797 -1.11E-06
    88 OT SD       0.80E-01   11.0     0.00000598     -6886.1443333792  5.03E-10
    89 OT DIIS     0.80E-01   10.9     0.00003412     -6886.1442949600  3.84E-05
    90 OT SD       0.80E-01   10.8     0.00000154     -6886.1443285022 -3.35E-05
    91 OT SD       0.80E-01   10.8     0.00000154     -6886.1443296471 -1.14E-06
    92 OT SD       0.80E-01   10.9     0.00000161     -6886.1443307836 -1.14E-06
    93 OT SD       0.80E-01   10.9     0.00000318     -6886.1443316587 -8.75E-07
    94 OT DIIS     0.80E-01   10.9     0.00001616     -6886.1443238909  7.77E-06
    95 OT SD       0.80E-01   10.8     0.00000154     -6886.1443299701 -6.08E-06
    96 OT SD       0.80E-01   10.9     0.00000154     -6886.1443311153 -1.15E-06
    97 OT SD       0.80E-01   10.8     0.00000154     -6886.1443322600 -1.14E-06
    98 OT SD       0.80E-01   11.0     0.00000169     -6886.1443333874 -1.13E-06
    99 OT SD       0.80E-01   10.9     0.00000437     -6886.1443339537 -5.66E-07
   100 OT DIIS     0.80E-01   10.9     0.00002400     -6886.1443154995  1.85E-05

  Leaving inner SCF loop after reaching   100 steps.


  Electronic density on regular grids:      -2431.9999999855        0.0000000145
  Core density on regular grids:             2431.9999999988       -0.0000000012
  Total charge density on r-space grids:        0.0000000133
  Total charge density g-space grids:           0.0000000133

  Overlap energy of the core charge distribution:               0.03242491031492
  Self energy of the core charge distribution:             -16017.19408509233290
  Core Hamiltonian energy:                                   4331.09479867064510
  Hartree energy:                                            6128.22473225168415
  Exchange-correlation energy:                              -1326.67605550849839
  Dispersion energy:                                           -1.62613073130533

  Total energy:                                             -6886.14431549949313

  outer SCF iter =   50 RMS gradient =   0.24E-04 energy =      -6886.1443154995

  ----------------------------------- OT ---------------------------------------
  Minimizer      : DIIS                : direct inversion
                                         in the iterative subspace
                                         using   7 DIIS vectors
                                         safer DIIS on
  Preconditioner : FULL_SINGLE_INVERSE : inversion of 
                                         H + eS - 2*(Sc)(c^T*H*c+const)(Sc)^T
  Precond_solver : DEFAULT
  stepsize       :    0.08000000                  energy_gap     :    0.08000000
  eps_taylor     :   0.10000E-15                  max_taylor     :             4
  ----------------------------------- OT ---------------------------------------

  Step     Update method      Time    Convergence         Total energy    Change
  ------------------------------------------------------------------------------
     1 OT DIIS     0.80E-01   28.2     0.00000154     -6886.1443283988 -1.29E-05
     2 OT DIIS     0.80E-01   10.7     0.00000154     -6886.1443295435 -1.14E-06
     3 OT DIIS     0.80E-01   10.6     0.00000154     -6886.1443297412 -1.98E-07
     4 OT DIIS     0.80E-01   11.0     0.00000154     -6886.1443300776 -3.36E-07
     5 OT SD       0.80E-01   10.9     0.00000154     -6886.1443302392 -1.62E-07
     6 OT SD       0.80E-01   10.8     0.00000154     -6886.1443313843 -1.15E-06
     7 OT SD       0.80E-01   10.8     0.00000154     -6886.1443325293 -1.15E-06
     8 OT SD       0.80E-01   10.9     0.00000155     -6886.1443336733 -1.14E-06
     9 OT SD       0.80E-01   10.9     0.00000181     -6886.1443347859 -1.11E-06
    10 OT SD       0.80E-01   10.8     0.00000571     -6886.1443348853 -9.94E-08
    11 OT DIIS     0.80E-01   10.8     0.00003233     -6886.1443005315  3.44E-05
    12 OT SD       0.80E-01   10.7     0.00000154     -6886.1443279760 -2.74E-05
    13 OT SD       0.80E-01   10.8     0.00000154     -6886.1443291197 -1.14E-06
    14 OT SD       0.80E-01   10.8     0.00000172     -6886.1443302424 -1.12E-06
    15 OT SD       0.80E-01   10.9     0.00000443     -6886.1443307699 -5.28E-07
    16 OT DIIS     0.80E-01   10.8     0.00002357     -6886.1443125852  1.82E-05
    17 OT SD       0.80E-01   10.8     0.00000154     -6886.1443304524 -1.79E-05
    18 OT SD       0.80E-01   10.8     0.00000154     -6886.1443315971 -1.14E-06
    19 OT SD       0.80E-01   10.7     0.00000155     -6886.1443327407 -1.14E-06
    20 OT SD       0.80E-01   10.8     0.00000182     -6886.1443338515 -1.11E-06
    21 OT SD       0.80E-01   10.8     0.00000572     -6886.1443339319 -8.04E-08
    22 OT DIIS     0.80E-01   10.9     0.00003184     -6886.1443001320  3.38E-05
    23 OT SD       0.80E-01   10.9     0.00000154     -6886.1443281588 -2.80E-05
    24 OT SD       0.80E-01   10.8     0.00000154     -6886.1443293032 -1.14E-06
    25 OT SD       0.80E-01   10.9     0.00000157     -6886.1443304442 -1.14E-06
    26 OT SD       0.80E-01   10.8     0.00000236     -6886.1443314782 -1.03E-06
    27 OT DIIS     0.80E-01   10.8     0.00001065     -6886.1443288585  2.62E-06
    28 OT SD       0.80E-01   10.8     0.00000154     -6886.1443295862 -7.28E-07
    29 OT SD       0.80E-01   10.7     0.00000154     -6886.1443307307 -1.14E-06
    30 OT SD       0.80E-01   10.8     0.00000155     -6886.1443318740 -1.14E-06
    31 OT SD       0.80E-01   10.9     0.00000184     -6886.1443329822 -1.11E-06
    32 OT SD       0.80E-01   11.0     0.00000586     -6886.1443330017 -1.95E-08
    33 OT DIIS     0.80E-01   11.0     0.00003241     -6886.1442977474  3.53E-05
    34 OT SD       0.80E-01   10.7     0.00000154     -6886.1443282865 -3.05E-05
    35 OT SD       0.80E-01   10.9     0.00000154     -6886.1443294308 -1.14E-06
    36 OT SD       0.80E-01   10.8     0.00000157     -6886.1443305710 -1.14E-06
    37 OT SD       0.80E-01   10.9     0.00000246     -6886.1443315859 -1.01E-06
    38 OT DIIS     0.80E-01   10.8     0.00001116     -6886.1443285152  3.07E-06
    39 OT SD       0.80E-01   10.8     0.00000154     -6886.1443291963 -6.81E-07
    40 OT SD       0.80E-01   10.9     0.00000154     -6886.1443303407 -1.14E-06
    41 OT SD       0.80E-01   10.7     0.00000156     -6886.1443314832 -1.14E-06
    42 OT SD       0.80E-01   10.8     0.00000209     -6886.1443325590 -1.08E-06
    43 OT SD       0.80E-01   10.8     0.00000857     -6886.1443312984  1.26E-06
    44 OT DIIS     0.80E-01   10.8     0.00005046     -6886.1442467716  8.45E-05
    45 OT SD       0.80E-01   10.8     0.00000154     -6886.1443282418 -8.15E-05
    46 OT SD       0.80E-01   10.8     0.00000154     -6886.1443293860 -1.14E-06
    47 OT SD       0.80E-01   10.7     0.00000158     -6886.1443305252 -1.14E-06
    48 OT SD       0.80E-01   10.8     0.00000259     -6886.1443315152 -9.90E-07
    49 OT DIIS     0.80E-01   10.8     0.00001196     -6886.1443277623  3.75E-06
    50 OT SD       0.80E-01   10.7     0.00000154     -6886.1443290903 -1.33E-06
    51 OT SD       0.80E-01   10.8     0.00000154     -6886.1443302348 -1.14E-06
    52 OT SD       0.80E-01   10.9     0.00000155     -6886.1443313781 -1.14E-06
    53 OT SD       0.80E-01   10.7     0.00000183     -6886.1443324884 -1.11E-06
    54 OT SD       0.80E-01   10.9     0.00000584     -6886.1443325288 -4.04E-08
    55 OT DIIS     0.80E-01   10.9     0.00003280     -6886.1442967709  3.58E-05
    56 OT SD       0.80E-01   10.8     0.00000154     -6886.1443281790 -3.14E-05
    57 OT SD       0.80E-01   10.8     0.00000154     -6886.1443293232 -1.14E-06
    58 OT SD       0.80E-01   10.8     0.00000159     -6886.1443304615 -1.14E-06
    59 OT SD       0.80E-01   10.8     0.00000285     -6886.1443314082 -9.47E-07
    60 OT DIIS     0.80E-01   10.8     0.00001422     -6886.1443257599  5.65E-06
    61 OT SD       0.80E-01   10.7     0.00000154     -6886.1443290673 -3.31E-06
    62 OT SD       0.80E-01   10.8     0.00000154     -6886.1443302116 -1.14E-06
    63 OT SD       0.80E-01   10.8     0.00000154     -6886.1443313552 -1.14E-06
    64 OT SD       0.80E-01   10.9     0.00000177     -6886.1443324727 -1.12E-06
    65 OT SD       0.80E-01   10.9     0.00000529     -6886.1443327307 -2.58E-07
    66 OT DIIS     0.80E-01   10.8     0.00002966     -6886.1443038110  2.89E-05
    67 OT SD       0.80E-01   10.8     0.00000154     -6886.1443280407 -2.42E-05
    68 OT SD       0.80E-01   10.9     0.00000154     -6886.1443291848 -1.14E-06
    69 OT SD       0.80E-01   10.8     0.00000158     -6886.1443303240 -1.14E-06
    70 OT SD       0.80E-01   11.0     0.00000258     -6886.1443313167 -9.93E-07
    71 OT DIIS     0.80E-01   10.9     0.00001196     -6886.1443275817  3.74E-06
    72 OT SD       0.80E-01   10.9     0.00000154     -6886.1443291152 -1.53E-06
    73 OT SD       0.80E-01   10.9     0.00000154     -6886.1443302594 -1.14E-06
    74 OT SD       0.80E-01   10.7     0.00000154     -6886.1443314030 -1.14E-06
    75 OT SD       0.80E-01   10.9     0.00000172     -6886.1443325257 -1.12E-06
    76 OT SD       0.80E-01   10.9     0.00000474     -6886.1443329732 -4.48E-07
    77 OT DIIS     0.80E-01   10.9     0.00002622     -6886.1443106582  2.23E-05
    78 OT SD       0.80E-01   10.8     0.00000154     -6886.1443279404 -1.73E-05
    79 OT SD       0.80E-01   10.8     0.00000154     -6886.1443290843 -1.14E-06
    80 OT SD       0.80E-01   10.8     0.00000160     -6886.1443302212 -1.14E-06
    81 OT SD       0.80E-01   10.9     0.00000313     -6886.1443311144 -8.93E-07
    82 OT DIIS     0.80E-01   10.8     0.00001636     -6886.1443233338  7.78E-06
    83 OT SD       0.80E-01   10.7     0.00000154     -6886.1443291175 -5.78E-06
    84 OT SD       0.80E-01   10.9     0.00000154     -6886.1443302616 -1.14E-06
    85 OT SD       0.80E-01   10.8     0.00000155     -6886.1443314045 -1.14E-06
    86 OT SD       0.80E-01   10.8     0.00000188     -6886.1443325073 -1.10E-06
    87 OT SD       0.80E-01   10.9     0.00000644     -6886.1443322975  2.10E-07
    88 OT DIIS     0.80E-01   10.9     0.00003642     -6886.1442879481  4.43E-05
    89 OT SD       0.80E-01   10.9     0.00000154     -6886.1443278864 -3.99E-05
    90 OT SD       0.80E-01   10.8     0.00000154     -6886.1443290303 -1.14E-06
    91 OT SD       0.80E-01   10.8     0.00000158     -6886.1443301696 -1.14E-06
    92 OT SD       0.80E-01   10.7     0.00000250     -6886.1443311743 -1.00E-06
    93 OT DIIS     0.80E-01   10.8     0.00001125     -6886.1443279675  3.21E-06
    94 OT SD       0.80E-01   10.7     0.00000154     -6886.1443289983 -1.03E-06
    95 OT SD       0.80E-01   10.7     0.00000154     -6886.1443301424 -1.14E-06
    96 OT SD       0.80E-01   10.7     0.00000154     -6886.1443312857 -1.14E-06
    97 OT SD       0.80E-01   10.8     0.00000176     -6886.1443324037 -1.12E-06
    98 OT SD       0.80E-01   10.8     0.00000531     -6886.1443326656 -2.62E-07
    99 OT DIIS     0.80E-01   10.8     0.00003019     -6886.1443030320  2.96E-05
   100 OT SD       0.80E-01   10.7     0.00000154     -6886.1443277831 -2.48E-05

  Leaving inner SCF loop after reaching   100 steps.


  Electronic density on regular grids:      -2431.9999999856        0.0000000144
  Core density on regular grids:             2431.9999999988       -0.0000000012
  Total charge density on r-space grids:        0.0000000133
  Total charge density g-space grids:           0.0000000133

  Overlap energy of the core charge distribution:               0.03242491031492
  Self energy of the core charge distribution:             -16017.19408509233290
  Core Hamiltonian energy:                                   4331.09489515503628
  Hartree energy:                                            6128.22464198694433
  Exchange-correlation energy:                              -1326.67607401171085
  Dispersion energy:                                           -1.62613073130533

  Total energy:                                             -6886.14432778305400

  outer SCF iter =   51 RMS gradient =   0.15E-05 energy =      -6886.1443277831
  outer SCF loop FAILED to converge after   51 iterations or 5100 steps


 *******************************************************************************
 *   ___                                                                       *
 *  /   \                                                                      *
 * [ABORT]                                                                     *
 *  \___/     SCF run NOT converged. To continue the calculation regardless,   *
 *    |             please set the keyword IGNORE_CONVERGENCE_FAILURE.         *
 *  O/|                                                                        *
 * /| |                                                                        *
 * / \                                                            qs_scf.F:611 *
 *******************************************************************************


 ===== Routine Calling Stack ===== 

            8 scf_env_do_scf
            7 qs_energies
            6 qs_forces
            5 cp_eval_at
            4 cp_opt_gopt_step
            3 geoopt_lbfgs
            2 cp_geo_opt
            1 CP2K
