 DBCSR| CPU Multiplication driver                                           XSMM (U)
 DBCSR| Multrec recursion limit                                              512 (U)
 DBCSR| Multiplication stack size                                          30000 (D)
 DBCSR| Maximum elements for images                                    UNLIMITED (U)
 DBCSR| Multiplicative factor virtual images                                   1 (U)
 DBCSR| Use multiplication densification                                       F (D)
 DBCSR| Multiplication size stacks                                             3 (U)
 DBCSR| Use memory pool for CPU allocation                                     F (U)
 DBCSR| Number of 3D layers                                               SINGLE (U)
 DBCSR| Use MPI memory allocation                                              F (U)
 DBCSR| Use RMA algorithm                                                      F (U)
 DBCSR| Use Communication thread                                               T (U)
 DBCSR| Communication thread load                                             30 (D)
 DBCSR| MPI: My process id                                                     0
 DBCSR| MPI: Number of processes                                               1
 DBCSR| OMP: Current number of threads                                        16
 DBCSR| OMP: Max number of threads                                            16
 DBCSR| ACC: Number of devices/node                                            1
 DBCSR| ACC: Number of stack-buffers per thread                                8 (U)
 DBCSR| ACC: Avoid driver after busy                                           F (U)
 DBCSR| ACC: Process inhomogeneous stacks                                      T (U)
 DBCSR| ACC: Min. flop for processing                                          0 (U)
 DBCSR| ACC: Use G2G algorithm                                                 F (D)
 DBCSR| ACC: Min. flop for sorting                                          4000 (U)
 DBCSR| ACC: Number of binning bins                                         4096 (U)
 DBCSR| ACC: Size of binning bins                                             16 (U)
 DBCSR| ACC: GPU backend is enabled                                            T (D)
 DBCSR| Split modifier for TAS multiplication algorithm                  1.0E+00 (U)


  **** **** ******  **  PROGRAM STARTED AT               2025-10-17 20:42:48.964
 ***** ** ***  *** **   PROGRAM STARTED ON                          1530ce9174ef
 **    ****   ******    PROGRAM STARTED BY                             <unknown>
 ***** **    ** ** **   PROGRAM PROCESS ID                                   614
  **** **  *******  **  PROGRAM STARTED IN                             /mnt/cp2k

 CP2K| version string:                                       CP2K version 2025.1
 CP2K| source code revision number:                                  git:9635df4
 CP2K| cp2kflags: omp libint fftw3 libxc libgrpp pexsi elpa elpa_nvidia_gpu para
 CP2K|            llel scalapack cosma quip xsmm dbcsr_acc plumed2 spglib libdft
 CP2K|            td4 sirius libvori libbqb offload_cuda spla_gemm_offloading li
 CP2K|            ibvdwxc hdf5 trexio
 CP2K| is freely available from                            https://www.cp2k.org/
 CP2K| Program compiled at                          Tue Jan 14 21:07:27 UTC 2025
 CP2K| Program compiled on                                          eb3a76499499
 CP2K| Program compiled for                                           local_cuda
 CP2K| Data directory path                                        /opt/cp2k/data
 CP2K| Input file name                                           HAP_100_opt.inp

 GLOBAL| Force Environment number                                              1
 GLOBAL| Basis set file name                                        BASIS_MOLOPT
 GLOBAL| Potential file name                                      GTH_POTENTIALS
 GLOBAL| MM Potential file name                                     MM_POTENTIAL
 GLOBAL| Coordinate file name                                  HAP_100_clean.xyz
 GLOBAL| Method name                                                        CP2K
 GLOBAL| Project name                                                HAP_100_opt
 GLOBAL| Run type                                                        GEO_OPT
 GLOBAL| FFT library                                                       FFTW3
 GLOBAL| Diagonalization library                                            ELPA
 GLOBAL| DGEMM library                                                      SPLA
 GLOBAL| Minimum number of eigenvectors for ELPA usage                        16
 GLOBAL| Orthonormality check for eigenvectors                          DISABLED
 GLOBAL| Matrix multiplication library                                     COSMA
 GLOBAL| All-to-all communication in single precision                          F
 GLOBAL| FFTs using library dependent lengths                                  F
 GLOBAL| Grid backend                                                       AUTO
 GLOBAL| Global print level                                                  LOW
 GLOBAL| MPI I/O enabled                                                       T
 GLOBAL| Total number of message passing processes                             1
 GLOBAL| Number of threads for this process                                   16
 GLOBAL| This output is from process                                           0
 GLOBAL| OpenMP stack size per thread (OMP_STACKSIZE)                        16M
 GLOBAL| CPU model name                              Intel(R) Core(TM) i7-14700K
 GLOBAL| CPUID                                                              1002
 GLOBAL| Compiled for CPUID                                                    0

 *** HINT in environment.F:928 :: The compiler target flags (generic) used ***
 *** to build this binary cannot exploit all extensions of this CPU model  ***
 *** (x86_avx2). Consider compiler target flags as part of FCFLAGS and     ***
 *** CFLAGS (ARCH file).                                                   ***


 MEMORY| system memory details [Kb]
 MEMORY|                        rank 0           min           max       average
 MEMORY| MemTotal             32768664      32768664      32768664      32768664
 MEMORY| MemFree              11318940      11318940      11318940      11318940
 MEMORY| Buffers                194616        194616        194616        194616
 MEMORY| Cached                6182268       6182268       6182268       6182268
 MEMORY| Slab                   144544        144544        144544        144544
 MEMORY| SReclaimable            55412         55412         55412         55412
 MEMORY| MemLikelyFree        17751236      17751236      17751236      17751236


 GENERATE|  Preliminary Number of Bonds generated:                             0
 GENERATE|  Achieved consistency in connectivity generation.

 *******************************************************************************
 *******************************************************************************
 **                                                                           **
 **     #####                         ##              ##                      **
 **    ##   ##            ##          ##              ##                      **
 **   ##     ##                       ##            ######                    **
 **   ##     ##  ##   ##  ##   #####  ##  ##   ####   ##    #####    #####    **
 **   ##     ##  ##   ##  ##  ##      ## ##   ##      ##   ##   ##  ##   ##   **
 **   ##  ## ##  ##   ##  ##  ##      ####     ###    ##   ######   ######    **
 **    ##  ###   ##   ##  ##  ##      ## ##      ##   ##   ##       ##        **
 **     #######   #####   ##   #####  ##  ##  ####    ##    #####   ##        **
 **           ##                                                    ##        **
 **                                                                           **
 **                                                ... make the atoms dance   **
 **                                                                           **
 **            Copyright (C) by CP2K developers group (2000-2025)             **
 **                      J. Chem. Phys. 152, 194103 (2020)                    **
 **                                                                           **
 *******************************************************************************


 TOTAL NUMBERS AND MAXIMUM NUMBERS

  Total number of            - Atomic kinds:                                   5
                             - Atoms:                                        387
                             - Shell sets:                                   387
                             - Shells:                                      2015
                             - Primitive Cartesian functions:               2031
                             - Cartesian basis functions:                   5338
                             - Spherical basis functions:                   4983

  Maximum angular momentum of- Orbital basis functions:                        2
                             - Local part of the GTH pseudopotential:          2
                             - Non-local part of the GTH pseudopotential:      3


 SCF PARAMETERS         Density guess:                                    ATOMIC
                        --------------------------------------------------------
                        max_scf:                                             100
                        max_scf_history:                                       0
                        max_diis:                                              4
                        --------------------------------------------------------
                        eps_scf:                                        1.00E-06
                        eps_scf_history:                                0.00E+00
                        eps_diis:                                       1.00E-01
                        eps_eigval:                                     1.00E-05
                        --------------------------------------------------------
                        level_shift [a.u.]:                             0.000000
                        --------------------------------------------------------
                        Outer loop SCF in use 
                        No variables optimised in outer loop
                        eps_scf                                         1.00E-06
                        max_scf                                               50
                        No outer loop optimization
                        step_size                                       5.00E-01

 *******************************************************************************
 ***                     STARTING GEOMETRY OPTIMIZATION                      ***
 ***                                 L-BFGS                                  ***
 *******************************************************************************

 --------------------------
 OPTIMIZATION STEP:      1
 --------------------------

 Number of electrons:                                                       2432
 Number of occupied orbitals:                                               1216
 Number of molecular orbitals:                                              1216

 Number of orbital functions:                                               4983
 Number of independent orbital functions:                                   4983

 Extrapolation method: initial_guess


 SCF WAVEFUNCTION OPTIMIZATION

  ----------------------------------- OT ---------------------------------------
  Minimizer      : DIIS                : direct inversion
                                         in the iterative subspace
                                         using   7 DIIS vectors
                                         safer DIIS on
  Preconditioner : FULL_SINGLE_INVERSE : inversion of 
                                         H + eS - 2*(Sc)(c^T*H*c+const)(Sc)^T
  Precond_solver : DEFAULT
  stepsize       :    0.08000000                  energy_gap     :    0.08000000
  eps_taylor     :   0.10000E-15                  max_taylor     :             4
  ----------------------------------- OT ---------------------------------------

  Step     Update method      Time    Convergence         Total energy    Change
  ------------------------------------------------------------------------------
     1 OT DIIS     0.80E-01   21.8     0.01705537     -6691.2033839778 -6.69E+03
     2 OT DIIS     0.80E-01   29.6     0.05701255     -6660.4067089036  3.08E+01
     3 OT DIIS     0.80E-01   31.8     0.02555879     -6752.1287456972 -9.17E+01
     4 OT DIIS     0.80E-01   41.2     0.02390881     -6761.5761560623 -9.45E+00
     5 OT DIIS     0.80E-01   44.1     0.00650384     -6799.9954642945 -3.84E+01
     6 OT DIIS     0.80E-01   35.9     0.00461229     -6829.1177909705 -2.91E+01
     7 OT DIIS     0.80E-01   40.4     0.00360984     -6843.2913735594 -1.42E+01
     8 OT DIIS     0.80E-01   42.6     0.00281265     -6854.1936311257 -1.09E+01
     9 OT DIIS     0.80E-01   26.7     0.00229373     -6862.8238018477 -8.63E+00
    10 OT DIIS     0.80E-01   36.9     0.00180691     -6869.8582043983 -7.03E+00
    11 OT DIIS     0.80E-01   37.5     0.00164478     -6873.9698616002 -4.11E+00
    12 OT DIIS     0.80E-01   19.1     0.00142296     -6876.5310420619 -2.56E+00
    13 OT DIIS     0.80E-01   40.0     0.00122352     -6878.2996160854 -1.77E+00
    14 OT DIIS     0.80E-01   25.8     0.00099303     -6880.0835526429 -1.78E+00
    15 OT DIIS     0.80E-01   26.6     0.00080137     -6881.8967851779 -1.81E+00
    16 OT DIIS     0.80E-01   26.7     0.00067300     -6883.0865802005 -1.19E+00
    17 OT DIIS     0.80E-01   26.3     0.00058069     -6883.8876821555 -8.01E-01
    18 OT DIIS     0.80E-01   22.8     0.00050371     -6884.4784266073 -5.91E-01
    19 OT DIIS     0.80E-01   25.3     0.00044683     -6884.9214841791 -4.43E-01
    20 OT DIIS     0.80E-01   24.8     0.00036655     -6885.4289093866 -5.07E-01
    21 OT DIIS     0.80E-01   24.4     0.00030810     -6885.8017380524 -3.73E-01
    22 OT DIIS     0.80E-01   21.0     0.00028035     -6885.9644909322 -1.63E-01
    23 OT DIIS     0.80E-01   25.0     0.00025104     -6886.1384243648 -1.74E-01
    24 OT DIIS     0.80E-01   24.4     0.00021786     -6886.3202011848 -1.82E-01
    25 OT DIIS     0.80E-01   26.3     0.00019080     -6886.4532243281 -1.33E-01
    26 OT DIIS     0.80E-01   20.6     0.00017331     -6886.5434474634 -9.02E-02
    27 OT DIIS     0.80E-01   24.7     0.00015649     -6886.6229146904 -7.95E-02
    28 OT DIIS     0.80E-01   23.5     0.00013994     -6886.7031573850 -8.02E-02
    29 OT DIIS     0.80E-01   21.5     0.00012911     -6886.7523632285 -4.92E-02
    30 OT DIIS     0.80E-01   25.4     0.00011354     -6886.8174027716 -6.50E-02
    31 OT DIIS     0.80E-01   24.8     0.00010224     -6886.8708616586 -5.35E-02
    32 OT DIIS     0.80E-01   25.2     0.00009344     -6886.9088971918 -3.80E-02
    33 OT DIIS     0.80E-01   21.1     0.00008638     -6886.9415091367 -3.26E-02
    34 OT DIIS     0.80E-01   25.0     0.00008036     -6886.9665081948 -2.50E-02
    35 OT DIIS     0.80E-01   24.5     0.00007549     -6886.9882495659 -2.17E-02
    36 OT DIIS     0.80E-01   25.0     0.00007095     -6887.0077895134 -1.95E-02
    37 OT DIIS     0.80E-01   23.5     0.00006437     -6887.0336637817 -2.59E-02
    38 OT DIIS     0.80E-01   24.9     0.00005972     -6887.0527436168 -1.91E-02
    39 OT DIIS     0.80E-01   23.7     0.00005636     -6887.0670286466 -1.43E-02
    40 OT DIIS     0.80E-01   21.0     0.00005296     -6887.0816378358 -1.46E-02
    41 OT DIIS     0.80E-01   25.6     0.00004992     -6887.0950624602 -1.34E-02
    42 OT DIIS     0.80E-01   24.9     0.00004702     -6887.1079695138 -1.29E-02
    43 OT DIIS     0.80E-01   25.8     0.00004462     -6887.1186989585 -1.07E-02
    44 OT DIIS     0.80E-01   21.1     0.00004245     -6887.1286048268 -9.91E-03
    45 OT DIIS     0.80E-01   24.9     0.00004027     -6887.1388713705 -1.03E-02
    46 OT DIIS     0.80E-01   24.8     0.00003824     -6887.1480648112 -9.19E-03
    47 OT DIIS     0.80E-01   24.5     0.00003633     -6887.1567642227 -8.70E-03
    48 OT DIIS     0.80E-01   24.2     0.00003490     -6887.1639371310 -7.17E-03
    49 OT DIIS     0.80E-01   24.9     0.00003333     -6887.1702033634 -6.27E-03
    50 OT DIIS     0.80E-01   24.0     0.00003177     -6887.1777479205 -7.54E-03
    51 OT DIIS     0.80E-01   21.0     0.00003029     -6887.1839249000 -6.18E-03
    52 OT DIIS     0.80E-01   25.0     0.00002915     -6887.1891572418 -5.23E-03
    53 OT DIIS     0.80E-01   24.2     0.00002794     -6887.1944982832 -5.34E-03
    54 OT DIIS     0.80E-01   26.1     0.00002668     -6887.2000874092 -5.59E-03
    55 OT DIIS     0.80E-01   21.5     0.00002581     -6887.2044851693 -4.40E-03
    56 OT DIIS     0.80E-01   24.7     0.00002484     -6887.2083447666 -3.86E-03
    57 OT DIIS     0.80E-01   23.5     0.00002373     -6887.2139089935 -5.56E-03
    58 OT DIIS     0.80E-01   21.5     0.00002295     -6887.2177379503 -3.83E-03
    59 OT DIIS     0.80E-01   25.4     0.00002212     -6887.2210810725 -3.34E-03
    60 OT DIIS     0.80E-01   24.9     0.00002126     -6887.2248094910 -3.73E-03
    61 OT DIIS     0.80E-01   24.5     0.00002045     -6887.2283411593 -3.53E-03
    62 OT DIIS     0.80E-01   21.0     0.00001975     -6887.2317916865 -3.45E-03
    63 OT DIIS     0.80E-01   25.2     0.00001899     -6887.2343427822 -2.55E-03
    64 OT DIIS     0.80E-01   24.5     0.00001840     -6887.2371182272 -2.78E-03
    65 OT DIIS     0.80E-01   26.4     0.00001779     -6887.2401862273 -3.07E-03
    66 OT DIIS     0.80E-01   21.0     0.00001732     -6887.2420179912 -1.83E-03
    67 OT DIIS     0.80E-01   24.9     0.00001675     -6887.2444613794 -2.44E-03
    68 OT DIIS     0.80E-01   24.4     0.00001626     -6887.2467601282 -2.30E-03
    69 OT DIIS     0.80E-01   23.2     0.00001589     -6887.2487251581 -1.97E-03
    70 OT DIIS     0.80E-01   24.9     0.00001547     -6887.2507638290 -2.04E-03
    71 OT DIIS     0.80E-01   25.0     0.00001518     -6887.2517036706 -9.40E-04
    72 OT DIIS     0.80E-01   24.6     0.00001477     -6887.2539698572 -2.27E-03
    73 OT DIIS     0.80E-01   20.9     0.00001451     -6887.2552848249 -1.31E-03
    74 OT DIIS     0.80E-01   25.1     0.00001424     -6887.2567479928 -1.46E-03
    75 OT DIIS     0.80E-01   24.4     0.00001387     -6887.2587776041 -2.03E-03
    76 OT DIIS     0.80E-01   26.0     0.00001361     -6887.2601039854 -1.33E-03
    77 OT DIIS     0.80E-01   21.7     0.00001337     -6887.2617430960 -1.64E-03
    78 OT DIIS     0.80E-01   24.9     0.00001348     -6887.2627304052 -9.87E-04
    79 OT DIIS     0.80E-01   23.9     0.00001306     -6887.2632168506 -4.86E-04
    80 OT DIIS     0.80E-01   21.9     0.00001276     -6887.2648973124 -1.68E-03
    81 OT DIIS     0.80E-01   25.4     0.00001260     -6887.2658547288 -9.57E-04
    82 OT DIIS     0.80E-01   24.9     0.00001242     -6887.2669115333 -1.06E-03
    83 OT DIIS     0.80E-01   25.3     0.00001226     -6887.2679039864 -9.92E-04
    84 OT DIIS     0.80E-01   21.0     0.00001208     -6887.2689303762 -1.03E-03
    85 OT DIIS     0.80E-01   25.2     0.00001193     -6887.2700579258 -1.13E-03
    86 OT DIIS     0.80E-01   24.8     0.00001171     -6887.2707508139 -6.93E-04
    87 OT DIIS     0.80E-01   25.4     0.00001150     -6887.2722042397 -1.45E-03
    88 OT DIIS     0.80E-01   22.6     0.00001131     -6887.2731308541 -9.27E-04
    89 OT DIIS     0.80E-01   25.0     0.00001120     -6887.2736913642 -5.61E-04
    90 OT DIIS     0.80E-01   23.5     0.00001110     -6887.2743342528 -6.43E-04
    91 OT DIIS     0.80E-01   21.2     0.00001100     -6887.2751552262 -8.21E-04
    92 OT DIIS     0.80E-01   25.5     0.00001089     -6887.2758440705 -6.89E-04
    93 OT DIIS     0.80E-01   25.0     0.00001077     -6887.2768114077 -9.67E-04
    94 OT DIIS     0.80E-01   25.6     0.00001049     -6887.2785608128 -1.75E-03
    95 OT DIIS     0.80E-01   21.1     0.00001040     -6887.2791259116 -5.65E-04
    96 OT DIIS     0.80E-01   25.0     0.00001032     -6887.2795824327 -4.57E-04
    97 OT DIIS     0.80E-01   24.7     0.00001021     -6887.2802686025 -6.86E-04
    98 OT DIIS     0.80E-01   24.9     0.00001008     -6887.2812330126 -9.64E-04
    99 OT DIIS     0.80E-01   23.5     0.00000997     -6887.2823031686 -1.07E-03
   100 OT DIIS     0.80E-01   24.9     0.00000987     -6887.2833527860 -1.05E-03

  Leaving inner SCF loop after reaching   100 steps.


  Electronic density on regular grids:      -2432.0000000073       -0.0000000073
  Core density on regular grids:             2431.9999999988       -0.0000000012
  Total charge density on r-space grids:       -0.0000000084
  Total charge density g-space grids:          -0.0000000084

  Overlap energy of the core charge distribution:               0.03711640696658
  Self energy of the core charge distribution:             -16017.19408509233290
  Core Hamiltonian energy:                                   4361.19900501738539
  Hartree energy:                                            6107.09296758866003
  Exchange-correlation energy:                              -1336.15234989963255
  Dispersion energy:                                           -2.26600680700004

  Total energy:                                             -6887.28335278595296

  outer SCF iter =    1 RMS gradient =   0.99E-05 energy =      -6887.2833527860

  ----------------------------------- OT ---------------------------------------
  Minimizer      : DIIS                : direct inversion
                                         in the iterative subspace
                                         using   7 DIIS vectors
                                         safer DIIS on
  Preconditioner : FULL_SINGLE_INVERSE : inversion of 
                                         H + eS - 2*(Sc)(c^T*H*c+const)(Sc)^T
  Precond_solver : DEFAULT
  stepsize       :    0.08000000                  energy_gap     :    0.08000000
  eps_taylor     :   0.10000E-15                  max_taylor     :             4
  ----------------------------------- OT ---------------------------------------

  Step     Update method      Time    Convergence         Total energy    Change
  ------------------------------------------------------------------------------
     1 OT DIIS     0.80E-01   58.2     0.00009604     -6887.2846443685 -1.29E-03
     2 OT DIIS     0.80E-01   24.8     0.00007584     -6887.2880580751 -3.41E-03
     3 OT DIIS     0.80E-01   23.5     0.00007861     -6887.2897031040 -1.65E-03
     4 OT DIIS     0.80E-01   24.4     0.00006347     -6887.2916067789 -1.90E-03
     5 OT DIIS     0.80E-01   25.4     0.00006114     -6887.2934274798 -1.82E-03
     6 OT DIIS     0.80E-01   20.5     0.00005075     -6887.2944793173 -1.05E-03
     7 OT DIIS     0.80E-01   24.3     0.00004735     -6887.2960864115 -1.61E-03
     8 OT DIIS     0.80E-01   22.8     0.00004462     -6887.2978315683 -1.75E-03
     9 OT DIIS     0.80E-01   20.5     0.00004321     -6887.3001329621 -2.30E-03
    10 OT DIIS     0.80E-01   25.2     0.00004095     -6887.3022276826 -2.09E-03
    11 OT DIIS     0.80E-01   24.4     0.00004033     -6887.3044489013 -2.22E-03
    12 OT DIIS     0.80E-01   26.1     0.00003922     -6887.3060435628 -1.59E-03
    13 OT DIIS     0.80E-01   21.0     0.00003939     -6887.3085700418 -2.53E-03
    14 OT DIIS     0.80E-01   24.8     0.00004185     -6887.3088844771 -3.14E-04
    15 OT DIIS     0.80E-01   23.8     0.00003684     -6887.3117679935 -2.88E-03
    16 OT DIIS     0.80E-01   22.0     0.00003500     -6887.3137755717 -2.01E-03
    17 OT DIIS     0.80E-01   25.4     0.00003361     -6887.3158068817 -2.03E-03
    18 OT DIIS     0.80E-01   25.0     0.00003256     -6887.3179476684 -2.14E-03
    19 OT DIIS     0.80E-01   25.1     0.00003225     -6887.3200116478 -2.06E-03
    20 OT DIIS     0.80E-01   21.0     0.00003073     -6887.3215099782 -1.50E-03
    21 OT DIIS     0.80E-01   25.3     0.00002943     -6887.3234240528 -1.91E-03
    22 OT DIIS     0.80E-01   24.4     0.00004019     -6887.3244104826 -9.86E-04
    23 OT DIIS     0.80E-01   26.0     0.00002805     -6887.3257758355 -1.37E-03
    24 OT DIIS     0.80E-01   21.1     0.00002546     -6887.3267094014 -9.34E-04
    25 OT DIIS     0.80E-01   24.8     0.00002434     -6887.3278299064 -1.12E-03
    26 OT DIIS     0.80E-01   23.7     0.00002283     -6887.3288385747 -1.01E-03
    27 OT DIIS     0.80E-01   22.2     0.00002129     -6887.3295587568 -7.20E-04
    28 OT DIIS     0.80E-01   25.3     0.00002114     -6887.3302621752 -7.03E-04
    29 OT DIIS     0.80E-01   25.0     0.00001918     -6887.3307432539 -4.81E-04
    30 OT SD       0.80E-01   25.0     0.00002000     -6887.3316802904 -9.37E-04
    31 OT DIIS     0.80E-01   21.0     0.00002670     -6887.3317731678 -9.29E-05
    32 OT DIIS     0.80E-01   24.9     0.00001572     -6887.3323626273 -5.89E-04
    33 OT DIIS     0.80E-01   24.7     0.00001557     -6887.3327056164 -3.43E-04
    34 OT DIIS     0.80E-01   24.9     0.00001452     -6887.3329985304 -2.93E-04
    35 OT DIIS     0.80E-01   23.6     0.00001248     -6887.3333056021 -3.07E-04
    36 OT DIIS     0.80E-01   24.8     0.00001213     -6887.3335183367 -2.13E-04
    37 OT DIIS     0.80E-01   24.2     0.00001161     -6887.3337033365 -1.85E-04
    38 OT DIIS     0.80E-01   18.9     0.00001091     -6887.3339448793 -2.42E-04
    39 OT DIIS     0.80E-01   23.8     0.00001054     -6887.3341536084 -2.09E-04
    40 OT SD       0.80E-01   23.2     0.00001082     -6887.3345015320 -3.48E-04
    41 OT DIIS     0.80E-01   23.4     0.00001687     -6887.3345251027 -2.36E-05
    42 OT DIIS     0.80E-01   25.6     0.00000873     -6887.3348120741 -2.87E-04
    43 OT DIIS     0.80E-01   23.9     0.00000871     -6887.3348785139 -6.64E-05
    44 OT DIIS     0.80E-01   22.6     0.00000755     -6887.3349971440 -1.19E-04
    45 OT DIIS     0.80E-01   24.9     0.00000737     -6887.3350755990 -7.85E-05
    46 OT DIIS     0.80E-01   25.7     0.00000667     -6887.3351672627 -9.17E-05
    47 OT DIIS     0.80E-01   23.5     0.00000648     -6887.3352110157 -4.38E-05
    48 OT DIIS     0.80E-01   21.9     0.00000581     -6887.3353195703 -1.09E-04
    49 OT DIIS     0.80E-01   25.2     0.00000590     -6887.3353531420 -3.36E-05
    50 OT DIIS     0.80E-01   25.6     0.00000553     -6887.3354183097 -6.52E-05
    51 OT DIIS     0.80E-01   23.8     0.00000539     -6887.3354365096 -1.82E-05
    52 OT DIIS     0.80E-01   21.8     0.00000519     -6887.3354914727 -5.50E-05
    53 OT DIIS     0.80E-01   25.2     0.00000503     -6887.3355315125 -4.00E-05
    54 OT DIIS     0.80E-01   25.5     0.00000456     -6887.3355626209 -3.11E-05
    55 OT DIIS     0.80E-01   24.3     0.00000443     -6887.3355850584 -2.24E-05
    56 OT DIIS     0.80E-01   21.0     0.00000391     -6887.3356090547 -2.40E-05
    57 OT DIIS     0.80E-01   25.1     0.00000378     -6887.3356265799 -1.75E-05
    58 OT DIIS     0.80E-01   24.6     0.00000365     -6887.3356485745 -2.20E-05
    59 OT DIIS     0.80E-01   26.3     0.00000375     -6887.3356620942 -1.35E-05
    60 OT DIIS     0.80E-01   21.0     0.00000348     -6887.3356870334 -2.49E-05
    61 OT DIIS     0.80E-01   25.0     0.00000338     -6887.3357078545 -2.08E-05
    62 OT DIIS     0.80E-01   25.1     0.00000321     -6887.3357160150 -8.16E-06
    63 OT DIIS     0.80E-01   24.5     0.00000314     -6887.3357288262 -1.28E-05
    64 OT DIIS     0.80E-01   24.3     0.00000297     -6887.3357367916 -7.97E-06
    65 OT DIIS     0.80E-01   25.0     0.00000293     -6887.3357473406 -1.05E-05
    66 OT DIIS     0.80E-01   24.4     0.00000286     -6887.3357616487 -1.43E-05
    67 OT DIIS     0.80E-01   21.0     0.00000282     -6887.3357684696 -6.82E-06
    68 OT DIIS     0.80E-01   25.1     0.00000272     -6887.3357799319 -1.15E-05
    69 OT DIIS     0.80E-01   24.5     0.00000267     -6887.3357905461 -1.06E-05
    70 OT DIIS     0.80E-01   26.2     0.00000267     -6887.3357975495 -7.00E-06
    71 OT DIIS     0.80E-01   21.1     0.00000265     -6887.3358117621 -1.42E-05
    72 OT DIIS     0.80E-01   24.9     0.00000256     -6887.3358190006 -7.24E-06
    73 OT DIIS     0.80E-01   24.4     0.00000251     -6887.3358321312 -1.31E-05
    74 OT DIIS     0.80E-01   23.2     0.00000241     -6887.3358437394 -1.16E-05
    75 OT DIIS     0.80E-01   24.9     0.00000239     -6887.3358495918 -5.85E-06
    76 OT DIIS     0.80E-01   25.0     0.00000232     -6887.3358587560 -9.16E-06
    77 OT DIIS     0.80E-01   24.6     0.00000231     -6887.3358699751 -1.12E-05
    78 OT DIIS     0.80E-01   21.2     0.00000232     -6887.3358791147 -9.14E-06
    79 OT DIIS     0.80E-01   25.1     0.00000229     -6887.3358954239 -1.63E-05
    80 OT DIIS     0.80E-01   24.5     0.00000221     -6887.3359013350 -5.91E-06
    81 OT DIIS     0.80E-01   26.4     0.00000215     -6887.3359124702 -1.11E-05
    82 OT DIIS     0.80E-01   21.0     0.00000211     -6887.3359226407 -1.02E-05
    83 OT DIIS     0.80E-01   24.9     0.00000209     -6887.3359284677 -5.83E-06
    84 OT DIIS     0.80E-01   24.6     0.00000206     -6887.3359393402 -1.09E-05
    85 OT DIIS     0.80E-01   23.9     0.00000203     -6887.3359516278 -1.23E-05
    86 OT DIIS     0.80E-01   24.5     0.00000202     -6887.3359599861 -8.36E-06
    87 OT DIIS     0.80E-01   24.9     0.00000198     -6887.3359722805 -1.23E-05
    88 OT DIIS     0.80E-01   24.6     0.00000194     -6887.3359764032 -4.12E-06
    89 OT DIIS     0.80E-01   21.1     0.00000192     -6887.3359865070 -1.01E-05
    90 OT DIIS     0.80E-01   25.4     0.00000189     -6887.3359954386 -8.93E-06
    91 OT DIIS     0.80E-01   24.2     0.00000191     -6887.3360020833 -6.64E-06
    92 OT DIIS     0.80E-01   26.0     0.00000184     -6887.3360121493 -1.01E-05
    93 OT DIIS     0.80E-01   21.7     0.00000181     -6887.3360211605 -9.01E-06
    94 OT DIIS     0.80E-01   24.9     0.00000179     -6887.3360258854 -4.72E-06
    95 OT DIIS     0.80E-01   23.6     0.00000178     -6887.3360344156 -8.53E-06
    96 OT DIIS     0.80E-01   21.6     0.00000178     -6887.3360395501 -5.13E-06
    97 OT DIIS     0.80E-01   25.4     0.00000176     -6887.3360514340 -1.19E-05
    98 OT DIIS     0.80E-01   25.0     0.00000175     -6887.3360637228 -1.23E-05
    99 OT DIIS     0.80E-01   25.4     0.00000170     -6887.3360677601 -4.04E-06
   100 OT DIIS     0.80E-01   21.1     0.00000167     -6887.3360701851 -2.43E-06

  Leaving inner SCF loop after reaching   100 steps.


  Electronic density on regular grids:      -2432.0000000076       -0.0000000076
  Core density on regular grids:             2431.9999999988       -0.0000000012
  Total charge density on r-space grids:       -0.0000000088
  Total charge density g-space grids:          -0.0000000088

  Overlap energy of the core charge distribution:               0.03711640696658
  Self energy of the core charge distribution:             -16017.19408509233290
  Core Hamiltonian energy:                                   4361.23031692048335
  Hartree energy:                                            6106.99763181228445
  Exchange-correlation energy:                              -1336.14104342554742
  Dispersion energy:                                           -2.26600680700004

  Total energy:                                             -6887.33607018514613

  outer SCF iter =    2 RMS gradient =   0.17E-05 energy =      -6887.3360701851

  ----------------------------------- OT ---------------------------------------
  Minimizer      : DIIS                : direct inversion
                                         in the iterative subspace
                                         using   7 DIIS vectors
                                         safer DIIS on
  Preconditioner : FULL_SINGLE_INVERSE : inversion of 
                                         H + eS - 2*(Sc)(c^T*H*c+const)(Sc)^T
  Precond_solver : DEFAULT
  stepsize       :    0.08000000                  energy_gap     :    0.08000000
  eps_taylor     :   0.10000E-15                  max_taylor     :             4
  ----------------------------------- OT ---------------------------------------

  Step     Update method      Time    Convergence         Total energy    Change
  ------------------------------------------------------------------------------
     1 OT DIIS     0.80E-01   51.2     0.00000189     -6887.3360781806 -8.00E-06
     2 OT DIIS     0.80E-01   24.3     0.00000194     -6887.3360798315 -1.65E-06
     3 OT DIIS     0.80E-01   23.8     0.00000184     -6887.3360804750 -6.43E-07
     4 OT DIIS     0.80E-01   23.1     0.00000184     -6887.3360832680 -2.79E-06
     5 OT DIIS     0.80E-01   24.6     0.00000175     -6887.3360951840 -1.19E-05
     6 OT DIIS     0.80E-01   24.3     0.00000170     -6887.3361047716 -9.59E-06
     7 OT DIIS     0.80E-01   25.6     0.00000165     -6887.3361137366 -8.96E-06
     8 OT DIIS     0.80E-01   21.1     0.00000162     -6887.3361201392 -6.40E-06
     9 OT DIIS     0.80E-01   24.4     0.00000158     -6887.3361277862 -7.65E-06
    10 OT DIIS     0.80E-01   23.7     0.00000156     -6887.3361352157 -7.43E-06
    11 OT DIIS     0.80E-01   20.5     0.00000155     -6887.3361405639 -5.35E-06
    12 OT DIIS     0.80E-01   24.4     0.00000152     -6887.3361465246 -5.96E-06
    13 OT DIIS     0.80E-01   23.6     0.00000150     -6887.3361517093 -5.18E-06
    14 OT DIIS     0.80E-01   21.7     0.00000148     -6887.3361561926 -4.48E-06
    15 OT DIIS     0.80E-01   24.9     0.00000147     -6887.3361617009 -5.51E-06
    16 OT DIIS     0.80E-01   24.4     0.00000146     -6887.3361673461 -5.65E-06
    17 OT DIIS     0.80E-01   25.9     0.00000143     -6887.3361738840 -6.54E-06
    18 OT DIIS     0.80E-01   20.8     0.00000141     -6887.3361788008 -4.92E-06
    19 OT DIIS     0.80E-01   23.8     0.00000140     -6887.3361831242 -4.32E-06
    20 OT DIIS     0.80E-01   23.7     0.00000141     -6887.3361914707 -8.35E-06
    21 OT DIIS     0.80E-01   20.6     0.00000139     -6887.3361998153 -8.34E-06
    22 OT DIIS     0.80E-01   24.5     0.00000139     -6887.3362083203 -8.50E-06
    23 OT DIIS     0.80E-01   24.4     0.00000139     -6887.3362155398 -7.22E-06
    24 OT DIIS     0.80E-01   22.5     0.00000135     -6887.3362183660 -2.83E-06
    25 OT DIIS     0.80E-01   24.6     0.00000130     -6887.3362202729 -1.91E-06
    26 OT DIIS     0.80E-01   24.3     0.00000137     -6887.3362336805 -1.34E-05
    27 OT DIIS     0.80E-01   26.0     0.00000142     -6887.3362450936 -1.14E-05
    28 OT DIIS     0.80E-01   20.8     0.00000167     -6887.3362574716 -1.24E-05
    29 OT DIIS     0.80E-01   24.5     0.00000200     -6887.3362675750 -1.01E-05
    30 OT DIIS     0.80E-01   23.1     0.00000113     -6887.3362672536  3.21E-07
    31 OT DIIS     0.80E-01   20.6     0.00000153     -6887.3362716911 -4.44E-06
    32 OT DIIS     0.80E-01   24.3     0.00000132     -6887.3362758781 -4.19E-06
    33 OT DIIS     0.80E-01   24.1     0.00000121     -6887.3362817589 -5.88E-06
    34 OT DIIS     0.80E-01   22.5     0.00000105     -6887.3362874804 -5.72E-06
    35 OT DIIS     0.80E-01   25.0     0.00000103     -6887.3362900724 -2.59E-06
    36 OT DIIS     0.80E-01   24.4     0.00000099     -6887.3362919783 -1.91E-06

  *** SCF run converged in    36 steps ***


  Electronic density on regular grids:      -2432.0000000901       -0.0000000901
  Core density on regular grids:             2431.9999999988       -0.0000000012
  Total charge density on r-space grids:       -0.0000000913
  Total charge density g-space grids:          -0.0000000913

  Overlap energy of the core charge distribution:               0.03711640696658
  Self energy of the core charge distribution:             -16017.19408509233290
  Core Hamiltonian energy:                                   4361.22252548983670
  Hartree energy:                                            6107.00124235692419
  Exchange-correlation energy:                              -1336.13708433264537
  Dispersion energy:                                           -2.26600680700004

  Total energy:                                             -6887.33629197825030

  outer SCF iter =    3 RMS gradient =   0.99E-06 energy =      -6887.3362919783
  outer SCF loop converged in   3 iterations or  236 steps


 ENERGY| Total FORCE_EVAL ( QS ) energy [hartree]          -6887.336293289919013

 Number of electrons:                                                       2432
 Number of occupied orbitals:                                               1216
 Number of molecular orbitals:                                              1216

 Number of orbital functions:                                               4983
 Number of independent orbital functions:                                   4983

 Extrapolation method: ASPC


 SCF WAVEFUNCTION OPTIMIZATION

  ----------------------------------- OT ---------------------------------------
  Minimizer      : DIIS                : direct inversion
                                         in the iterative subspace
                                         using   7 DIIS vectors
                                         safer DIIS on
  Preconditioner : FULL_SINGLE_INVERSE : inversion of 
                                         H + eS - 2*(Sc)(c^T*H*c+const)(Sc)^T
  Precond_solver : DEFAULT
  stepsize       :    0.08000000                  energy_gap     :    0.08000000
  eps_taylor     :   0.10000E-15                  max_taylor     :             4
  ----------------------------------- OT ---------------------------------------

  Step     Update method      Time    Convergence         Total energy    Change
  ------------------------------------------------------------------------------
     1 OT DIIS     0.80E-01   21.1     0.00417155     -6896.4753563368 -6.90E+03
     2 OT DIIS     0.80E-01   24.9     0.00272057     -6903.2895394645 -6.81E+00
     3 OT DIIS     0.80E-01   25.2     0.00175551     -6907.9273701859 -4.64E+00
     4 OT DIIS     0.80E-01   21.1     0.00140211     -6908.9199854520 -9.93E-01
     5 OT DIIS     0.80E-01   25.1     0.00120697     -6909.7105309658 -7.91E-01
     6 OT DIIS     0.80E-01   24.6     0.00116332     -6909.9841906445 -2.74E-01
     7 OT DIIS     0.80E-01   25.8     0.00092369     -6910.2814827158 -2.97E-01
     8 OT SD       0.80E-01   22.5     0.00092583     -6910.3957299049 -1.14E-01
     9 OT SD       0.80E-01   24.9     0.00100811     -6910.7850845393 -3.89E-01
    10 OT SD       0.80E-01   23.7     0.00128948     -6911.1128038638 -3.28E-01
    11 OT DIIS     0.80E-01   21.0     0.00151233     -6911.2295332905 -1.17E-01
    12 OT DIIS     0.80E-01   25.3     0.00112890     -6911.1872828993  4.23E-02
    13 OT DIIS     0.80E-01   24.7     0.00109323     -6911.1670670559  2.02E-02
    14 OT SD       0.80E-01   25.9     0.00101705     -6911.3942181210 -2.27E-01
    15 OT DIIS     0.80E-01   21.1     0.00174701     -6911.5043305090 -1.10E-01
    16 OT DIIS     0.80E-01   24.8     0.00077765     -6911.6748407744 -1.71E-01
    17 OT DIIS     0.80E-01   24.8     0.00079350     -6911.7026807587 -2.78E-02
    18 OT DIIS     0.80E-01   24.4     0.00065464     -6911.8659456129 -1.63E-01
    19 OT DIIS     0.80E-01   24.3     0.00059936     -6911.9890223766 -1.23E-01
    20 OT DIIS     0.80E-01   25.0     0.00056097     -6912.0847367886 -9.57E-02
    21 OT DIIS     0.80E-01   23.6     0.00056404     -6912.1784671441 -9.37E-02
    22 OT DIIS     0.80E-01   21.2     0.00043138     -6912.2672699252 -8.88E-02
    23 OT DIIS     0.80E-01   25.5     0.00045074     -6912.3248512630 -5.76E-02
    24 OT DIIS     0.80E-01   25.0     0.00042881     -6912.3872124800 -6.24E-02
    25 OT DIIS     0.80E-01   25.7     0.00040565     -6912.4162530892 -2.90E-02
    26 OT DIIS     0.80E-01   20.9     0.00039557     -6912.4664990456 -5.02E-02
    27 OT DIIS     0.80E-01   25.2     0.00039174     -6912.4932392004 -2.67E-02
    28 OT DIIS     0.80E-01   25.0     0.00038593     -6912.5147444963 -2.15E-02
    29 OT DIIS     0.80E-01   24.9     0.00039209     -6912.5377378343 -2.30E-02
    30 OT DIIS     0.80E-01   23.7     0.00038551     -6912.5451488461 -7.41E-03
    31 OT DIIS     0.80E-01   25.0     0.00039645     -6912.5498969153 -4.75E-03
    32 OT DIIS     0.80E-01   23.8     0.00040005     -6912.6095777212 -5.97E-02
    33 OT DIIS     0.80E-01   21.1     0.00039504     -6912.6315646552 -2.20E-02
    34 OT DIIS     0.80E-01   25.3     0.00038948     -6912.6661852909 -3.46E-02
    35 OT DIIS     0.80E-01   24.7     0.00038504     -6912.6965089579 -3.03E-02
    36 OT DIIS     0.80E-01   24.7     0.00037928     -6912.7244586008 -2.79E-02
    37 OT SD       0.80E-01   20.9     0.00039612     -6912.7618456591 -3.74E-02
    38 OT SD       0.80E-01   24.0     0.00044603     -6912.8299878290 -6.81E-02
    39 OT SD       0.80E-01   24.7     0.00073771     -6912.8759168295 -4.59E-02
    40 OT DIIS     0.80E-01   22.5     0.00168436     -6912.7779079223  9.80E-02
    41 OT SD       0.80E-01   25.7     0.00041748     -6912.7928861252 -1.50E-02
    42 OT DIIS     0.80E-01   24.1     0.00058071     -6912.8503275634 -5.74E-02
    43 OT DIIS     0.80E-01   24.5     0.00039519     -6912.8687258144 -1.84E-02
    44 OT DIIS     0.80E-01   22.8     0.00035757     -6912.9949624222 -1.26E-01
    45 OT DIIS     0.80E-01   25.5     0.00033061     -6913.0716660658 -7.67E-02
    46 OT DIIS     0.80E-01   24.1     0.00036674     -6913.1337837781 -6.21E-02
    47 OT DIIS     0.80E-01   22.7     0.00031324     -6913.1843271016 -5.05E-02
    48 OT DIIS     0.80E-01   25.0     0.00030584     -6913.2617109072 -7.74E-02
    49 OT DIIS     0.80E-01   25.6     0.00027085     -6913.3623613170 -1.01E-01
    50 OT DIIS     0.80E-01   23.5     0.00029118     -6913.4106784702 -4.83E-02
    51 OT DIIS     0.80E-01   21.9     0.00025027     -6913.4791475881 -6.85E-02
    52 OT DIIS     0.80E-01   25.1     0.00024889     -6913.5096058130 -3.05E-02
    53 OT DIIS     0.80E-01   25.6     0.00024025     -6913.5502804316 -4.07E-02
    54 OT DIIS     0.80E-01   23.9     0.00023725     -6913.5648866471 -1.46E-02
    55 OT DIIS     0.80E-01   21.6     0.00022723     -6913.5813776801 -1.65E-02
    56 OT DIIS     0.80E-01   25.2     0.00023314     -6913.5930782474 -1.17E-02
    57 OT DIIS     0.80E-01   25.6     0.00022688     -6913.6278601059 -3.48E-02
    58 OT DIIS     0.80E-01   24.2     0.00022311     -6913.6275432918  3.17E-04
    59 OT DIIS     0.80E-01   21.7     0.00021980     -6913.6592448675 -3.17E-02
    60 OT DIIS     0.80E-01   25.4     0.00021787     -6913.6811479264 -2.19E-02
    61 OT DIIS     0.80E-01   25.7     0.00021518     -6913.7110775603 -2.99E-02
    62 OT DIIS     0.80E-01   23.7     0.00021461     -6913.7283954128 -1.73E-02
    63 OT DIIS     0.80E-01   21.3     0.00020587     -6913.7652780610 -3.69E-02
    64 OT DIIS     0.80E-01   25.4     0.00021624     -6913.7710815197 -5.80E-03
    65 OT DIIS     0.80E-01   25.7     0.00021125     -6913.8125996958 -4.15E-02
    66 OT DIIS     0.80E-01   23.9     0.00020816     -6913.8277061695 -1.51E-02
    67 OT DIIS     0.80E-01   21.7     0.00019098     -6913.8630648005 -3.54E-02
    68 OT DIIS     0.80E-01   25.1     0.00018297     -6913.8923757651 -2.93E-02
    69 OT DIIS     0.80E-01   25.7     0.00017962     -6913.9218032458 -2.94E-02
    70 OT DIIS     0.80E-01   24.0     0.00016840     -6913.9406688606 -1.89E-02
    71 OT DIIS     0.80E-01   21.6     0.00014839     -6913.9795346518 -3.89E-02
    72 OT DIIS     0.80E-01   25.3     0.00015363     -6913.9925327783 -1.30E-02
    73 OT DIIS     0.80E-01   25.7     0.00012874     -6914.0316063394 -3.91E-02
    74 OT DIIS     0.80E-01   24.2     0.00012302     -6914.0387655402 -7.16E-03
    75 OT DIIS     0.80E-01   21.5     0.00011371     -6914.0520183108 -1.33E-02
    76 OT DIIS     0.80E-01   25.5     0.00010149     -6914.0630683611 -1.11E-02
    77 OT DIIS     0.80E-01   25.6     0.00009762     -6914.0762453081 -1.32E-02
    78 OT DIIS     0.80E-01   24.3     0.00008805     -6914.0888540496 -1.26E-02
    79 OT DIIS     0.80E-01   21.4     0.00007479     -6914.0981973548 -9.34E-03
    80 OT DIIS     0.80E-01   25.4     0.00006456     -6914.1013395142 -3.14E-03
    81 OT DIIS     0.80E-01   25.6     0.00005714     -6914.1046386689 -3.30E-03
    82 OT DIIS     0.80E-01   23.6     0.00006119     -6914.1094424359 -4.80E-03
    83 OT DIIS     0.80E-01   21.7     0.00004630     -6914.1118494005 -2.41E-03
    84 OT DIIS     0.80E-01   25.2     0.00004258     -6914.1135243720 -1.67E-03
    85 OT DIIS     0.80E-01   25.6     0.00003706     -6914.1150767244 -1.55E-03
    86 OT DIIS     0.80E-01   24.1     0.00003352     -6914.1159225724 -8.46E-04
    87 OT DIIS     0.80E-01   21.6     0.00003268     -6914.1168784011 -9.56E-04
    88 OT DIIS     0.80E-01   25.3     0.00003142     -6914.1177679677 -8.90E-04
    89 OT DIIS     0.80E-01   25.0     0.00002885     -6914.1184552361 -6.87E-04
    90 OT DIIS     0.80E-01   24.8     0.00002672     -6914.1196787950 -1.22E-03
    91 OT DIIS     0.80E-01   21.6     0.00002595     -6914.1202599101 -5.81E-04
    92 OT DIIS     0.80E-01   26.1     0.00002405     -6914.1206875006 -4.28E-04
    93 OT DIIS     0.80E-01   25.5     0.00002169     -6914.1211744682 -4.87E-04
    94 OT DIIS     0.80E-01   25.0     0.00002068     -6914.1215325571 -3.58E-04
    95 OT DIIS     0.80E-01   21.5     0.00002008     -6914.1219364721 -4.04E-04
    96 OT DIIS     0.80E-01   25.2     0.00001911     -6914.1222858725 -3.49E-04
    97 OT DIIS     0.80E-01   24.4     0.00001845     -6914.1226142866 -3.28E-04
    98 OT DIIS     0.80E-01   25.8     0.00001777     -6914.1230205359 -4.06E-04
    99 OT DIIS     0.80E-01   21.0     0.00001692     -6914.1233079531 -2.87E-04
   100 OT DIIS     0.80E-01   24.9     0.00001675     -6914.1235532447 -2.45E-04

  Leaving inner SCF loop after reaching   100 steps.


  Electronic density on regular grids:      -2431.9999999875        0.0000000125
  Core density on regular grids:             2431.9999999988       -0.0000000012
  Total charge density on r-space grids:        0.0000000113
  Total charge density g-space grids:           0.0000000113

  Overlap energy of the core charge distribution:               0.00153989712480
  Self energy of the core charge distribution:             -16017.19408509233290
  Core Hamiltonian energy:                                   4302.12226359654596
  Hartree energy:                                            6132.14174917854780
  Exchange-correlation energy:                              -1328.92888242814934
  Dispersion energy:                                           -2.26613839647087

  Total energy:                                             -6914.12355324473447

  outer SCF iter =    1 RMS gradient =   0.17E-04 energy =      -6914.1235532447

  ----------------------------------- OT ---------------------------------------
  Minimizer      : DIIS                : direct inversion
                                         in the iterative subspace
                                         using   7 DIIS vectors
                                         safer DIIS on
  Preconditioner : FULL_SINGLE_INVERSE : inversion of 
                                         H + eS - 2*(Sc)(c^T*H*c+const)(Sc)^T
  Precond_solver : DEFAULT
  stepsize       :    0.08000000                  energy_gap     :    0.08000000
  eps_taylor     :   0.10000E-15                  max_taylor     :             4
  ----------------------------------- OT ---------------------------------------

  Step     Update method      Time    Convergence         Total energy    Change
  ------------------------------------------------------------------------------
     1 OT DIIS     0.80E-01   54.6     0.00004718     -6914.1238588084 -3.06E-04
     2 OT DIIS     0.80E-01   22.8     0.00003892     -6914.1247711464 -9.12E-04
     3 OT DIIS     0.80E-01   20.5     0.00003768     -6914.1253479838 -5.77E-04
     4 OT DIIS     0.80E-01   24.5     0.00002214     -6914.1262972566 -9.49E-04
     5 OT DIIS     0.80E-01   24.3     0.00001632     -6914.1265744429 -2.77E-04
     6 OT DIIS     0.80E-01   24.2     0.00001481     -6914.1267160357 -1.42E-04
     7 OT DIIS     0.80E-01   24.6     0.00001280     -6914.1269258682 -2.10E-04
     8 OT DIIS     0.80E-01   24.5     0.00001104     -6914.1271683748 -2.43E-04
     9 OT DIIS     0.80E-01   25.7     0.00001003     -6914.1273079530 -1.40E-04
    10 OT DIIS     0.80E-01   20.5     0.00000944     -6914.1274146949 -1.07E-04
    11 OT DIIS     0.80E-01   24.6     0.00000866     -6914.1275294480 -1.15E-04
    12 OT DIIS     0.80E-01   22.9     0.00000774     -6914.1276549894 -1.26E-04
    13 OT DIIS     0.80E-01   20.8     0.00000731     -6914.1277470126 -9.20E-05
    14 OT DIIS     0.80E-01   25.3     0.00000691     -6914.1278253620 -7.83E-05
    15 OT DIIS     0.80E-01   24.7     0.00000625     -6914.1279179303 -9.26E-05
    16 OT DIIS     0.80E-01   26.1     0.00000577     -6914.1279897211 -7.18E-05
    17 OT DIIS     0.80E-01   20.3     0.00000541     -6914.1280444203 -5.47E-05
    18 OT DIIS     0.80E-01   25.0     0.00000513     -6914.1280904186 -4.60E-05
    19 OT DIIS     0.80E-01   24.3     0.00000481     -6914.1281333508 -4.29E-05
    20 OT DIIS     0.80E-01   22.9     0.00000458     -6914.1281658021 -3.25E-05
    21 OT DIIS     0.80E-01   24.7     0.00000445     -6914.1281892122 -2.34E-05
    22 OT DIIS     0.80E-01   25.0     0.00000429     -6914.1282127754 -2.36E-05
    23 OT DIIS     0.80E-01   24.4     0.00000410     -6914.1282402604 -2.75E-05
    24 OT DIIS     0.80E-01   20.8     0.00000394     -6914.1282653738 -2.51E-05
    25 OT DIIS     0.80E-01   25.1     0.00000382     -6914.1282891636 -2.38E-05
    26 OT DIIS     0.80E-01   24.6     0.00000369     -6914.1283119575 -2.28E-05
    27 OT DIIS     0.80E-01   26.2     0.00000353     -6914.1283339446 -2.20E-05
    28 OT DIIS     0.80E-01   21.0     0.00000342     -6914.1283504260 -1.65E-05
    29 OT DIIS     0.80E-01   25.1     0.00000334     -6914.1283660642 -1.56E-05
    30 OT DIIS     0.80E-01   24.0     0.00000323     -6914.1283839201 -1.79E-05
    31 OT DIIS     0.80E-01   22.4     0.00000308     -6914.1284032964 -1.94E-05
    32 OT DIIS     0.80E-01   25.3     0.00000296     -6914.1284194524 -1.62E-05
    33 OT DIIS     0.80E-01   25.0     0.00000287     -6914.1284345106 -1.51E-05
    34 OT DIIS     0.80E-01   24.8     0.00000276     -6914.1284489837 -1.45E-05
    35 OT DIIS     0.80E-01   21.1     0.00000263     -6914.1284623287 -1.33E-05
    36 OT DIIS     0.80E-01   25.1     0.00000253     -6914.1284728750 -1.05E-05
    37 OT DIIS     0.80E-01   24.7     0.00000246     -6914.1284825524 -9.68E-06
    38 OT DIIS     0.80E-01   25.3     0.00000236     -6914.1284918167 -9.26E-06
    39 OT DIIS     0.80E-01   22.7     0.00000226     -6914.1284998085 -7.99E-06
    40 OT DIIS     0.80E-01   25.0     0.00000218     -6914.1285059304 -6.12E-06
    41 OT DIIS     0.80E-01   23.5     0.00000213     -6914.1285116418 -5.71E-06
    42 OT DIIS     0.80E-01   21.5     0.00000207     -6914.1285168221 -5.18E-06
    43 OT DIIS     0.80E-01   25.4     0.00000199     -6914.1285216103 -4.79E-06
    44 OT DIIS     0.80E-01   24.4     0.00000194     -6914.1285257580 -4.15E-06
    45 OT DIIS     0.80E-01   26.1     0.00000190     -6914.1285299927 -4.23E-06
    46 OT DIIS     0.80E-01   20.9     0.00000185     -6914.1285341469 -4.15E-06
    47 OT DIIS     0.80E-01   24.9     0.00000179     -6914.1285379311 -3.78E-06
    48 OT DIIS     0.80E-01   24.6     0.00000175     -6914.1285413704 -3.44E-06
    49 OT DIIS     0.80E-01   23.5     0.00000172     -6914.1285452548 -3.88E-06
    50 OT DIIS     0.80E-01   25.0     0.00000167     -6914.1285492381 -3.98E-06
    51 OT DIIS     0.80E-01   25.0     0.00000162     -6914.1285530213 -3.78E-06
    52 OT DIIS     0.80E-01   24.7     0.00000158     -6914.1285567544 -3.73E-06
    53 OT DIIS     0.80E-01   21.0     0.00000154     -6914.1285606296 -3.88E-06
    54 OT DIIS     0.80E-01   25.1     0.00000148     -6914.1285641988 -3.57E-06
    55 OT DIIS     0.80E-01   24.7     0.00000143     -6914.1285674213 -3.22E-06
    56 OT DIIS     0.80E-01   26.3     0.00000139     -6914.1285703639 -2.94E-06
    57 OT DIIS     0.80E-01   21.0     0.00000136     -6914.1285732894 -2.93E-06
    58 OT DIIS     0.80E-01   24.9     0.00000131     -6914.1285758610 -2.57E-06
    59 OT DIIS     0.80E-01   23.8     0.00000127     -6914.1285780212 -2.16E-06
    60 OT DIIS     0.80E-01   22.3     0.00000123     -6914.1285801169 -2.10E-06
    61 OT DIIS     0.80E-01   24.8     0.00000120     -6914.1285820748 -1.96E-06
    62 OT DIIS     0.80E-01   25.0     0.00000116     -6914.1285836223 -1.55E-06
    63 OT DIIS     0.80E-01   24.7     0.00000113     -6914.1285849664 -1.34E-06
    64 OT DIIS     0.80E-01   21.0     0.00000111     -6914.1285862703 -1.30E-06
    65 OT DIIS     0.80E-01   25.0     0.00000109     -6914.1285876078 -1.34E-06
    66 OT DIIS     0.80E-01   24.5     0.00000106     -6914.1285888015 -1.19E-06
    67 OT DIIS     0.80E-01   25.4     0.00000104     -6914.1285898387 -1.04E-06
    68 OT DIIS     0.80E-01   22.8     0.00000102     -6914.1285909914 -1.15E-06
    69 OT DIIS     0.80E-01   25.0     0.00000100     -6914.1285922578 -1.27E-06

  *** SCF run converged in    69 steps ***


  Electronic density on regular grids:      -2431.9999999875        0.0000000125
  Core density on regular grids:             2431.9999999988       -0.0000000012
  Total charge density on r-space grids:        0.0000000113
  Total charge density g-space grids:           0.0000000113

  Overlap energy of the core charge distribution:               0.00153989712480
  Self energy of the core charge distribution:             -16017.19408509233290
  Core Hamiltonian energy:                                   4302.10030966786053
  Hartree energy:                                            6132.15208851751504
  Exchange-correlation energy:                              -1328.92230685148547
  Dispersion energy:                                           -2.26613839647087

  Total energy:                                             -6914.12859225778811

  outer SCF iter =    2 RMS gradient =   0.10E-05 energy =      -6914.1285922578
  outer SCF loop converged in   2 iterations or  169 steps


 ENERGY| Total FORCE_EVAL ( QS ) energy [hartree]          -6914.128593359811020

 OPT| **************************************************************************
 OPT| Step number                                                              1
 OPT| Optimization method                                                  LBFGS
 OPT| Total energy [hartree]                                    -6914.1285933598
 OPT| Effective energy change [hartree]                           -26.7923000699
 OPT| Decrease in energy                                                     YES
 OPT| Used time [s]                                                     9999.508
 OPT|
 OPT| Maximum step size                                             0.4724315332
 OPT| Convergence limit for maximum step size                       0.0030000000
 OPT| Maximum step size is converged                                          NO
 OPT|
 OPT| RMS step size                                                 0.0894293195
 OPT| Convergence limit for RMS step size                           0.0015000000
 OPT| RMS step size is converged                                              NO
 OPT|
 OPT| Maximum gradient                                              0.1560039816
 OPT| Convergence limit for maximum gradient                        0.0010000000
 OPT| Maximum gradient is converged                                           NO
 OPT|
 OPT| RMS gradient                                                  0.0238043084
 OPT| Convergence limit for RMS gradient                            0.0005000000
 OPT| RMS gradient is converged                                               NO
 OPT| **************************************************************************
 OPT| Estimated peak process memory after this step [MiB]                   8588

 --------------------------
 OPTIMIZATION STEP:      2
 --------------------------

 Number of electrons:                                                       2432
 Number of occupied orbitals:                                               1216
 Number of molecular orbitals:                                              1216

 Number of orbital functions:                                               4983
 Number of independent orbital functions:                                   4983

 Extrapolation method: ASPC


 SCF WAVEFUNCTION OPTIMIZATION

  ----------------------------------- OT ---------------------------------------
  Minimizer      : DIIS                : direct inversion
                                         in the iterative subspace
                                         using   7 DIIS vectors
                                         safer DIIS on
  Preconditioner : FULL_SINGLE_INVERSE : inversion of 
                                         H + eS - 2*(Sc)(c^T*H*c+const)(Sc)^T
  Precond_solver : DEFAULT
  stepsize       :    0.08000000                  energy_gap     :    0.08000000
  eps_taylor     :   0.10000E-15                  max_taylor     :             4
  ----------------------------------- OT ---------------------------------------

  Step     Update method      Time    Convergence         Total energy    Change
  ------------------------------------------------------------------------------
     1 OT DIIS     0.80E-01   20.6     0.00432336     -6907.0676500670 -6.91E+03
     2 OT DIIS     0.80E-01   17.9     0.00297632     -6911.8094586224 -4.74E+00
     3 OT DIIS     0.80E-01   25.9     0.00364699     -6912.4258364447 -6.16E-01
     4 OT DIIS     0.80E-01   24.4     0.00182638     -6913.4933999460 -1.07E+00
     5 OT DIIS     0.80E-01   25.4     0.00158850     -6913.8716454663 -3.78E-01
     6 OT DIIS     0.80E-01   22.0     0.00091786     -6914.0914982968 -2.20E-01
     7 OT DIIS     0.80E-01   25.6     0.00089761     -6914.1289971504 -3.75E-02
     8 OT DIIS     0.80E-01   24.7     0.00043117     -6914.1589113947 -2.99E-02
     9 OT DIIS     0.80E-01   24.9     0.00022609     -6914.1687631600 -9.85E-03
    10 OT DIIS     0.80E-01   22.5     0.00015916     -6914.1720199504 -3.26E-03
    11 OT DIIS     0.80E-01   25.6     0.00015055     -6914.1734549543 -1.44E-03
    12 OT DIIS     0.80E-01   23.9     0.00010329     -6914.1748286729 -1.37E-03
    13 OT DIIS     0.80E-01   23.0     0.00008499     -6914.1756900190 -8.61E-04
    14 OT DIIS     0.80E-01   24.9     0.00007545     -6914.1762270023 -5.37E-04
    15 OT DIIS     0.80E-01   25.7     0.00007796     -6914.1766783448 -4.51E-04
    16 OT DIIS     0.80E-01   23.5     0.00007554     -6914.1769207530 -2.42E-04
    17 OT DIIS     0.80E-01   21.8     0.00004799     -6914.1772079786 -2.87E-04
    18 OT DIIS     0.80E-01   25.1     0.00004479     -6914.1773810981 -1.73E-04
    19 OT DIIS     0.80E-01   25.7     0.00004686     -6914.1775386711 -1.58E-04
    20 OT DIIS     0.80E-01   23.9     0.00003741     -6914.1776286778 -9.00E-05
    21 OT DIIS     0.80E-01   22.3     0.00003324     -6914.1776969181 -6.82E-05
    22 OT DIIS     0.80E-01   25.1     0.00002870     -6914.1777908664 -9.39E-05
    23 OT DIIS     0.80E-01   25.7     0.00002684     -6914.1778561969 -6.53E-05
    24 OT DIIS     0.80E-01   23.8     0.00002898     -6914.1778986229 -4.24E-05
    25 OT DIIS     0.80E-01   21.5     0.00002197     -6914.1779461686 -4.75E-05
    26 OT DIIS     0.80E-01   25.2     0.00001944     -6914.1779964691 -5.03E-05
    27 OT DIIS     0.80E-01   25.1     0.00002130     -6914.1780366007 -4.01E-05
    28 OT DIIS     0.80E-01   24.9     0.00001982     -6914.1780606798 -2.41E-05
    29 OT DIIS     0.80E-01   21.5     0.00001891     -6914.1780795728 -1.89E-05
    30 OT DIIS     0.80E-01   25.8     0.00001659     -6914.1781059018 -2.63E-05
    31 OT DIIS     0.80E-01   25.7     0.00001485     -6914.1781244484 -1.85E-05
    32 OT DIIS     0.80E-01   24.8     0.00001566     -6914.1781368222 -1.24E-05
    33 OT DIIS     0.80E-01   21.5     0.00001251     -6914.1781482165 -1.14E-05
    34 OT DIIS     0.80E-01   25.8     0.00001031     -6914.1781632907 -1.51E-05
    35 OT DIIS     0.80E-01   25.6     0.00001059     -6914.1781738325 -1.05E-05
    36 OT DIIS     0.80E-01   25.1     0.00001024     -6914.1781827651 -8.93E-06
    37 OT DIIS     0.80E-01   21.5     0.00001019     -6914.1781908808 -8.12E-06
    38 OT DIIS     0.80E-01   26.0     0.00000931     -6914.1781984845 -7.60E-06
    39 OT DIIS     0.80E-01   25.5     0.00000871     -6914.1782058969 -7.41E-06
    40 OT DIIS     0.80E-01   25.1     0.00000948     -6914.1782111660 -5.27E-06
    41 OT DIIS     0.80E-01   21.4     0.00000812     -6914.1782159588 -4.79E-06
    42 OT DIIS     0.80E-01   25.4     0.00000694     -6914.1782213519 -5.39E-06
    43 OT DIIS     0.80E-01   25.7     0.00000679     -6914.1782244204 -3.07E-06
    44 OT DIIS     0.80E-01   24.6     0.00000627     -6914.1782280484 -3.63E-06
    45 OT DIIS     0.80E-01   21.4     0.00000617     -6914.1782314456 -3.40E-06
    46 OT DIIS     0.80E-01   25.3     0.00000545     -6914.1782336202 -2.17E-06
    47 OT DIIS     0.80E-01   25.7     0.00000505     -6914.1782365007 -2.88E-06
    48 OT DIIS     0.80E-01   24.6     0.00000534     -6914.1782388913 -2.39E-06
    49 OT DIIS     0.80E-01   21.4     0.00000485     -6914.1782413460 -2.45E-06
    50 OT DIIS     0.80E-01   25.6     0.00000451     -6914.1782435751 -2.23E-06
    51 OT DIIS     0.80E-01   25.5     0.00000456     -6914.1782450040 -1.43E-06
    52 OT DIIS     0.80E-01   24.7     0.00000433     -6914.1782468364 -1.83E-06
    53 OT DIIS     0.80E-01   21.3     0.00000436     -6914.1782485608 -1.72E-06
    54 OT DIIS     0.80E-01   25.2     0.00000392     -6914.1782493276 -7.67E-07
    55 OT DIIS     0.80E-01   24.7     0.00000350     -6914.1782505303 -1.20E-06
    56 OT DIIS     0.80E-01   26.0     0.00000348     -6914.1782515893 -1.06E-06
    57 OT DIIS     0.80E-01   21.3     0.00000308     -6914.1782527905 -1.20E-06
    58 OT DIIS     0.80E-01   25.5     0.00000287     -6914.1782536953 -9.05E-07
    59 OT DIIS     0.80E-01   24.5     0.00000291     -6914.1782545122 -8.17E-07
    60 OT DIIS     0.80E-01   26.0     0.00000280     -6914.1782554687 -9.57E-07
    61 OT DIIS     0.80E-01   21.4     0.00000289     -6914.1782564149 -9.46E-07
    62 OT DIIS     0.80E-01   25.7     0.00000284     -6914.1782569276 -5.13E-07
    63 OT DIIS     0.80E-01   24.6     0.00000260     -6914.1782575819 -6.54E-07
    64 OT DIIS     0.80E-01   26.3     0.00000264     -6914.1782581479 -5.66E-07
    65 OT DIIS     0.80E-01   21.4     0.00000233     -6914.1782588355 -6.88E-07
    66 OT DIIS     0.80E-01   25.5     0.00000213     -6914.1782592326 -3.97E-07
    67 OT DIIS     0.80E-01   24.6     0.00000209     -6914.1782597007 -4.68E-07
    68 OT DIIS     0.80E-01   25.1     0.00000194     -6914.1782601763 -4.76E-07
    69 OT DIIS     0.80E-01   22.2     0.00000193     -6914.1782606522 -4.76E-07
    70 OT DIIS     0.80E-01   25.6     0.00000194     -6914.1782610315 -3.79E-07
    71 OT DIIS     0.80E-01   23.7     0.00000182     -6914.1782614353 -4.04E-07
    72 OT DIIS     0.80E-01   22.7     0.00000191     -6914.1782618071 -3.72E-07
    73 OT DIIS     0.80E-01   25.2     0.00000177     -6914.1782622439 -4.37E-07
    74 OT DIIS     0.80E-01   25.5     0.00000168     -6914.1782625083 -2.64E-07
    75 OT DIIS     0.80E-01   24.2     0.00000168     -6914.1782628559 -3.48E-07
    76 OT DIIS     0.80E-01   20.9     0.00000159     -6914.1782631299 -2.74E-07
    77 OT DIIS     0.80E-01   25.2     0.00000152     -6914.1782633713 -2.41E-07
    78 OT DIIS     0.80E-01   24.6     0.00000148     -6914.1782636377 -2.66E-07
    79 OT DIIS     0.80E-01   26.4     0.00000138     -6914.1782638782 -2.40E-07
    80 OT DIIS     0.80E-01   20.9     0.00000140     -6914.1782641110 -2.33E-07
    81 OT DIIS     0.80E-01   24.3     0.00000133     -6914.1782643693 -2.58E-07
    82 OT DIIS     0.80E-01   24.2     0.00000128     -6914.1782645843 -2.15E-07
    83 OT DIIS     0.80E-01   22.5     0.00000130     -6914.1782648634 -2.79E-07
    84 OT DIIS     0.80E-01   25.3     0.00000130     -6914.1782650746 -2.11E-07
    85 OT DIIS     0.80E-01   25.1     0.00000127     -6914.1782652253 -1.51E-07
    86 OT DIIS     0.80E-01   25.2     0.00000126     -6914.1782654425 -2.17E-07
    87 OT DIIS     0.80E-01   20.9     0.00000118     -6914.1782656159 -1.73E-07
    88 OT DIIS     0.80E-01   25.0     0.00000118     -6914.1782657738 -1.58E-07
    89 OT DIIS     0.80E-01   24.7     0.00000110     -6914.1782659158 -1.42E-07
    90 OT DIIS     0.80E-01   25.2     0.00000104     -6914.1782660743 -1.58E-07
    91 OT DIIS     0.80E-01   23.4     0.00000102     -6914.1782662670 -1.93E-07
    92 OT DIIS     0.80E-01   25.1     0.00000104     -6914.1782664296 -1.63E-07
    93 OT DIIS     0.80E-01   23.8     0.00000103     -6914.1782665441 -1.14E-07
    94 OT DIIS     0.80E-01   20.9     0.00000103     -6914.1782667227 -1.79E-07
    95 OT DIIS     0.80E-01   25.5     0.00000101     -6914.1782668797 -1.57E-07
    96 OT DIIS     0.80E-01   24.6     0.00000103     -6914.1782670208 -1.41E-07
    97 OT DIIS     0.80E-01   26.2     0.00000099     -6914.1782671045 -8.37E-08

  *** SCF run converged in    97 steps ***


  Electronic density on regular grids:      -2431.9999999860        0.0000000140
  Core density on regular grids:             2431.9999999988       -0.0000000012
  Total charge density on r-space grids:        0.0000000128
  Total charge density g-space grids:           0.0000000128

  Overlap energy of the core charge distribution:               0.00160325348265
  Self energy of the core charge distribution:             -16017.19408509233290
  Core Hamiltonian energy:                                   4301.77392272590259
  Hartree energy:                                            6132.38125291237793
  Exchange-correlation energy:                              -1328.87484684336414
  Dispersion energy:                                           -2.26611406051811

  Total energy:                                             -6914.17826710445206

  outer SCF iter =    1 RMS gradient =   0.99E-06 energy =      -6914.1782671045
  outer SCF loop converged in   1 iterations or   97 steps


 ENERGY| Total FORCE_EVAL ( QS ) energy [hartree]          -6914.178267238095941

 OPT| **************************************************************************
 OPT| Step number                                                              2
 OPT| Optimization method                                                  LBFGS
 OPT| Total energy [hartree]                                    -6914.1782672381
 OPT| Effective energy change [hartree]                            -0.0496738783
 OPT| Decrease in energy                                                     YES
 OPT| Used time [s]                                                     2401.783
 OPT|
 OPT| Maximum step size                                             0.0156036361
 OPT| Convergence limit for maximum step size                       0.0030000000
 OPT| Maximum step size is converged                                          NO
 OPT|
 OPT| RMS step size                                                 0.0020529720
 OPT| Convergence limit for RMS step size                           0.0015000000
 OPT| RMS step size is converged                                              NO
 OPT|
 OPT| Maximum gradient                                              0.1456474834
 OPT| Convergence limit for maximum gradient                        0.0010000000
 OPT| Maximum gradient is converged                                           NO
 OPT|
 OPT| RMS gradient                                                  0.0201639544
 OPT| Convergence limit for RMS gradient                            0.0005000000
 OPT| RMS gradient is converged                                               NO
 OPT| **************************************************************************
 OPT| Estimated peak process memory after this step [MiB]                   8588

 --------------------------
 OPTIMIZATION STEP:      3
 --------------------------

 Number of electrons:                                                       2432
 Number of occupied orbitals:                                               1216
 Number of molecular orbitals:                                              1216

 Number of orbital functions:                                               4983
 Number of independent orbital functions:                                   4983

 Extrapolation method: ASPC


 SCF WAVEFUNCTION OPTIMIZATION

  ----------------------------------- OT ---------------------------------------
  Minimizer      : DIIS                : direct inversion
                                         in the iterative subspace
                                         using   7 DIIS vectors
                                         safer DIIS on
  Preconditioner : FULL_SINGLE_INVERSE : inversion of 
                                         H + eS - 2*(Sc)(c^T*H*c+const)(Sc)^T
  Precond_solver : DEFAULT
  stepsize       :    0.08000000                  energy_gap     :    0.08000000
  eps_taylor     :   0.10000E-15                  max_taylor     :             4
  ----------------------------------- OT ---------------------------------------

  Step     Update method      Time    Convergence         Total energy    Change
  ------------------------------------------------------------------------------
     1 OT DIIS     0.80E-01   20.8     0.00240295     -6911.2783277542 -6.91E+03
     2 OT DIIS     0.80E-01   25.3     0.00133107     -6913.2486360910 -1.97E+00
     3 OT DIIS     0.80E-01   24.8     0.00090471     -6913.9432907329 -6.95E-01
     4 OT DIIS     0.80E-01   24.8     0.00052445     -6914.2405681069 -2.97E-01
     5 OT DIIS     0.80E-01   24.0     0.00028799     -6914.3179698457 -7.74E-02
     6 OT DIIS     0.80E-01   25.1     0.00018034     -6914.3334376091 -1.55E-02
     7 OT DIIS     0.80E-01   24.0     0.00008522     -6914.3410147494 -7.58E-03
     8 OT DIIS     0.80E-01   21.0     0.00005698     -6914.3437231507 -2.71E-03
     9 OT DIIS     0.80E-01   24.8     0.00004750     -6914.3447242409 -1.00E-03
    10 OT DIIS     0.80E-01   24.6     0.00003363     -6914.3452852992 -5.61E-04
    11 OT DIIS     0.80E-01   26.3     0.00002120     -6914.3456671364 -3.82E-04
    12 OT DIIS     0.80E-01   20.8     0.00001680     -6914.3459100510 -2.43E-04
    13 OT DIIS     0.80E-01   24.9     0.00001433     -6914.3460540687 -1.44E-04
    14 OT DIIS     0.80E-01   24.1     0.00001306     -6914.3461566104 -1.03E-04
    15 OT DIIS     0.80E-01   21.9     0.00001138     -6914.3462411857 -8.46E-05
    16 OT DIIS     0.80E-01   25.4     0.00001029     -6914.3463293627 -8.82E-05
    17 OT DIIS     0.80E-01   25.1     0.00000998     -6914.3464127513 -8.34E-05
    18 OT DIIS     0.80E-01   25.1     0.00000968     -6914.3464841638 -7.14E-05
    19 OT DIIS     0.80E-01   20.8     0.00000908     -6914.3465518532 -6.77E-05
    20 OT DIIS     0.80E-01   25.2     0.00000868     -6914.3466328501 -8.10E-05
    21 OT DIIS     0.80E-01   24.7     0.00000846     -6914.3467205222 -8.77E-05
    22 OT DIIS     0.80E-01   26.4     0.00000831     -6914.3468159063 -9.54E-05
    23 OT DIIS     0.80E-01   20.9     0.00000802     -6914.3469202047 -1.04E-04
    24 OT DIIS     0.80E-01   24.9     0.00000765     -6914.3470445334 -1.24E-04
    25 OT DIIS     0.80E-01   23.7     0.00000745     -6914.3471832686 -1.39E-04
    26 OT DIIS     0.80E-01   21.9     0.00000731     -6914.3473029371 -1.20E-04
    27 OT DIIS     0.80E-01   25.6     0.00000699     -6914.3474106719 -1.08E-04
    28 OT DIIS     0.80E-01   25.1     0.00000664     -6914.3475160794 -1.05E-04
    29 OT DIIS     0.80E-01   25.1     0.00000641     -6914.3476145389 -9.85E-05
    30 OT DIIS     0.80E-01   20.9     0.00000633     -6914.3477058606 -9.13E-05
    31 OT DIIS     0.80E-01   25.2     0.00000612     -6914.3477811891 -7.53E-05
    32 OT DIIS     0.80E-01   24.8     0.00000587     -6914.3478784806 -9.73E-05
    33 OT DIIS     0.80E-01   25.5     0.00000574     -6914.3479700902 -9.16E-05
    34 OT DIIS     0.80E-01   22.9     0.00000561     -6914.3480540726 -8.40E-05
    35 OT DIIS     0.80E-01   25.1     0.00000542     -6914.3481391621 -8.51E-05
    36 OT DIIS     0.80E-01   23.5     0.00000519     -6914.3482128108 -7.36E-05
    37 OT DIIS     0.80E-01   19.9     0.00000494     -6914.3483018377 -8.90E-05
    38 OT DIIS     0.80E-01   18.9     0.00000492     -6914.3483929346 -9.11E-05
    39 OT DIIS     0.80E-01   26.0     0.00000474     -6914.3484360593 -4.31E-05
    40 OT DIIS     0.80E-01   21.5     0.00000438     -6914.3485171628 -8.11E-05
    41 OT DIIS     0.80E-01   26.1     0.00000424     -6914.3485575046 -4.03E-05
    42 OT DIIS     0.80E-01   24.5     0.00000402     -6914.3485957108 -3.82E-05
    43 OT DIIS     0.80E-01   26.1     0.00000384     -6914.3486346683 -3.90E-05
    44 OT DIIS     0.80E-01   21.5     0.00000379     -6914.3486608599 -2.62E-05
    45 OT DIIS     0.80E-01   25.9     0.00000344     -6914.3486918868 -3.10E-05
    46 OT DIIS     0.80E-01   24.5     0.00000329     -6914.3487129493 -2.11E-05
    47 OT DIIS     0.80E-01   26.2     0.00000326     -6914.3487196173 -6.67E-06
    48 OT DIIS     0.80E-01   21.4     0.00000286     -6914.3487337939 -1.42E-05
    49 OT DIIS     0.80E-01   25.9     0.00000289     -6914.3487460197 -1.22E-05
    50 OT DIIS     0.80E-01   24.4     0.00000276     -6914.3487579473 -1.19E-05
    51 OT DIIS     0.80E-01   26.1     0.00000255     -6914.3487743112 -1.64E-05
    52 OT DIIS     0.80E-01   21.6     0.00000257     -6914.3487778085 -3.50E-06
    53 OT DIIS     0.80E-01   25.9     0.00000224     -6914.3487849292 -7.12E-06
    54 OT DIIS     0.80E-01   24.5     0.00000204     -6914.3487903319 -5.40E-06
    55 OT DIIS     0.80E-01   26.0     0.00000181     -6914.3487968777 -6.55E-06
    56 OT DIIS     0.80E-01   21.4     0.00000182     -6914.3488024928 -5.62E-06
    57 OT DIIS     0.80E-01   25.8     0.00000177     -6914.3488052570 -2.76E-06
    58 OT DIIS     0.80E-01   24.5     0.00000157     -6914.3488132513 -7.99E-06
    59 OT DIIS     0.80E-01   26.0     0.00000117     -6914.3488160730 -2.82E-06
    60 OT DIIS     0.80E-01   21.5     0.00000134     -6914.3488182106 -2.14E-06
    61 OT DIIS     0.80E-01   25.9     0.00000095     -6914.3488188645 -6.54E-07

  *** SCF run converged in    61 steps ***


  Electronic density on regular grids:      -2431.9999999739        0.0000000261
  Core density on regular grids:             2431.9999999988       -0.0000000012
  Total charge density on r-space grids:        0.0000000250
  Total charge density g-space grids:           0.0000000250

  Overlap energy of the core charge distribution:               0.00223912520515
  Self energy of the core charge distribution:             -16017.19408509233290
  Core Hamiltonian energy:                                   4300.05489089182174
  Hartree energy:                                            6133.68029228108753
  Exchange-correlation energy:                              -1328.62599679904929
  Dispersion energy:                                           -2.26615927123512

  Total energy:                                             -6914.34881886450057

  outer SCF iter =    1 RMS gradient =   0.95E-06 energy =      -6914.3488188645
  outer SCF loop converged in   1 iterations or   61 steps


 ENERGY| Total FORCE_EVAL ( QS ) energy [hartree]          -6914.348819800266938

 OPT| **************************************************************************
 OPT| Step number                                                              3
 OPT| Optimization method                                                  LBFGS
 OPT| Total energy [hartree]                                    -6914.3488198003
 OPT| Effective energy change [hartree]                            -0.1705525622
 OPT| Decrease in energy                                                     YES
 OPT| Used time [s]                                                     1522.586
 OPT|
 OPT| Maximum step size                                             0.1494771104
 OPT| Convergence limit for maximum step size                       0.0030000000
 OPT| Maximum step size is converged                                          NO
 OPT|
 OPT| RMS step size                                                 0.0146024818
 OPT| Convergence limit for RMS step size                           0.0015000000
 OPT| RMS step size is converged                                              NO
 OPT|
 OPT| Maximum gradient                                              0.0989166498
 OPT| Convergence limit for maximum gradient                        0.0010000000
 OPT| Maximum gradient is converged                                           NO
 OPT|
 OPT| RMS gradient                                                  0.0124407397
 OPT| Convergence limit for RMS gradient                            0.0005000000
 OPT| RMS gradient is converged                                               NO
 OPT| **************************************************************************
 OPT| Estimated peak process memory after this step [MiB]                   8588

 --------------------------
 OPTIMIZATION STEP:      4
 --------------------------

 Number of electrons:                                                       2432
 Number of occupied orbitals:                                               1216
 Number of molecular orbitals:                                              1216

 Number of orbital functions:                                               4983
 Number of independent orbital functions:                                   4983

 Extrapolation method: ASPC


 SCF WAVEFUNCTION OPTIMIZATION

  ----------------------------------- OT ---------------------------------------
  Minimizer      : DIIS                : direct inversion
                                         in the iterative subspace
                                         using   7 DIIS vectors
                                         safer DIIS on
  Preconditioner : FULL_SINGLE_INVERSE : inversion of 
                                         H + eS - 2*(Sc)(c^T*H*c+const)(Sc)^T
  Precond_solver : DEFAULT
  stepsize       :    0.08000000                  energy_gap     :    0.08000000
  eps_taylor     :   0.10000E-15                  max_taylor     :             4
  ----------------------------------- OT ---------------------------------------

  Step     Update method      Time    Convergence         Total energy    Change
  ------------------------------------------------------------------------------
     1 OT DIIS     0.80E-01   22.5     0.00144596     -6913.5189939118 -6.91E+03
     2 OT DIIS     0.80E-01   25.1     0.00105896     -6914.0658139551 -5.47E-01
     3 OT DIIS     0.80E-01   22.4     0.00106423     -6914.1802432016 -1.14E-01
     4 OT DIIS     0.80E-01   25.3     0.00066801     -6914.2981492534 -1.18E-01
     5 OT DIIS     0.80E-01   24.1     0.00045823     -6914.3567392908 -5.86E-02
     6 OT DIIS     0.80E-01   21.5     0.00031263     -6914.3770154879 -2.03E-02
     7 OT DIIS     0.80E-01   25.3     0.00018526     -6914.3848170357 -7.80E-03
     8 OT DIIS     0.80E-01   25.7     0.00016354     -6914.3863844527 -1.57E-03
     9 OT DIIS     0.80E-01   24.6     0.00007842     -6914.3878612924 -1.48E-03
[...]
    10 OT DIIS     0.80E-01   22.1     0.00000323     -6923.5854598542 -2.32E-06
    11 OT DIIS     0.80E-01   24.1     0.00000183     -6923.5854610761 -1.22E-06
    12 OT DIIS     0.80E-01   19.3     0.00000157     -6923.5854616925 -6.16E-07
    13 OT DIIS     0.80E-01   23.6     0.00000158     -6923.5854620562 -3.64E-07
    14 OT DIIS     0.80E-01   21.5     0.00000123     -6923.5854623658 -3.10E-07
    15 OT DIIS     0.80E-01   14.8     0.00000106     -6923.5854626623 -2.97E-07
    16 OT DIIS     0.80E-01   24.5     0.00000099     -6923.5854629383 -2.76E-07

  *** SCF run converged in    16 steps ***


  Electronic density on regular grids:      -2431.9999997705        0.0000002295
  Core density on regular grids:             2431.9999999988       -0.0000000012
  Total charge density on r-space grids:        0.0000002283
  Total charge density g-space grids:           0.0000002283

  Overlap energy of the core charge distribution:               0.00000849197757
  Self energy of the core charge distribution:             -16017.19408509233290
  Core Hamiltonian energy:                                   4273.26467464230882
  Hartree energy:                                            6145.57523074352866
  Exchange-correlation energy:                              -1322.99364134178472
  Dispersion energy:                                           -2.23765038197549

  Total energy:                                             -6923.58546293827749

  outer SCF iter =    1 RMS gradient =   0.99E-06 energy =      -6923.5854629383
  outer SCF loop converged in   1 iterations or   16 steps


 ENERGY| Total FORCE_EVAL ( QS ) energy [hartree]          -6923.585463234046983

 OPT| **************************************************************************
 OPT| Step number                                                            200
 OPT| Optimization method                                                  LBFGS
 OPT| Total energy [hartree]                                    -6923.5854632340
 OPT| Effective energy change [hartree]                            -0.0007378361
 OPT| Decrease in energy                                                     YES
 OPT| Used time [s]                                                      400.802
 OPT|
 OPT| Maximum step size                                             0.1302132421
 OPT| Convergence limit for maximum step size                       0.0030000000
 OPT| Maximum step size is converged                                          NO
 OPT|
 OPT| RMS step size                                                 0.0076459289
 OPT| Convergence limit for RMS step size                           0.0015000000
 OPT| RMS step size is converged                                              NO
 OPT|
 OPT| Maximum gradient                                              0.0043104634
 OPT| Convergence limit for maximum gradient                        0.0010000000
 OPT| Maximum gradient is converged                                           NO
 OPT|
 OPT| RMS gradient                                                  0.0004968277
 OPT| Convergence limit for RMS gradient                            0.0005000000
 OPT| RMS gradient is converged                                              YES
 OPT| **************************************************************************
 OPT| Estimated peak process memory after this step [MiB]                   9437

 *** MAXIMUM NUMBER OF OPTIMIZATION STEPS REACHED ***
 ***        EXITING GEOMETRY OPTIMIZATION         ***

 -------------------------------------------------------------------------------
 -                                                                             -
 -                                DBCSR STATISTICS                             -
 -                                                                             -
 -------------------------------------------------------------------------------
 COUNTER                                    TOTAL       BLAS       SMM       ACC
 flops     9 x     9 x    32         615792461184       0.0%      0.0%    100.0%     
 flops     9 x    14 x    32        2173538416896       0.0%      0.0%    100.0%     
 flops    14 x     9 x    32        2234610008064       0.0%      0.0%    100.0%     
 flops     9 x    32 x     9        3747771618048       0.0%      0.0%    100.0%     
 flops     9 x    13 x    32        6161722924032       0.0%      0.0%    100.0%     
 flops    13 x     9 x    32        6266575396224       0.0%      0.0%    100.0%     
 flops    14 x    14 x    32        8035132155904       0.0%      0.0%    100.0%     
 flops    14 x    32 x     9       14103678355200       0.0%      0.0%    100.0%     
 flops     9 x    32 x    14       14103678355200       0.0%      0.0%    100.0%     
 flops    13 x    14 x    32       20287933958656       0.0%      0.0%    100.0%     
 flops    32 x    32 x     9       20592432119808       0.0%      0.0%    100.0%     
 flops    14 x    13 x    32       21585150705664       0.0%      0.0%    100.0%     
 flops     9 x    32 x    32       25672745484288       0.0%      0.0%    100.0%     
 flops    13 x    32 x     9       41458845287808       0.0%      0.0%    100.0%     
 flops     9 x    32 x    13       41458845287808       0.0%      0.0%    100.0%     
 flops    13 x    13 x    32       51122185708672       0.0%      0.0%    100.0%     
 flops    14 x    32 x    14       51973925799936       0.0%      0.0%    100.0%     
 flops    32 x    32 x    14       80081680465920       0.0%      0.0%    100.0%     
 flops    14 x    32 x    32       99838454661120       0.0%      0.0%    100.0%     
 flops    14 x    32 x    13      147266866027008       0.0%      0.0%    100.0%     
 flops    13 x    32 x    14      147266866027008       0.0%      0.0%    100.0%     
 flops    32 x    32 x    32      153031669186560       0.0%      0.0%    100.0%     
 flops    32 x    32 x    13      255617863987200       0.0%      0.0%    100.0%     
 flops    13 x    32 x    32      318680781619200       0.0%      0.0%    100.0%     
 flops    13 x    32 x    13      400431118072960       0.0%      0.0%    100.0%     
 flops inhomo. stacks                           0       0.0%      0.0%      0.0%
 flops total                         1.933810E+15       0.0%      0.0%    100.0%
 flops max/rank                      1.933810E+15       0.0%      0.0%    100.0%
 matmuls inhomo. stacks                         0       0.0%      0.0%      0.0%
 matmuls total                       125724049484       0.0%      0.0%    100.0%
 number of processed stacks               9110455       0.0%      0.0%    100.0%
 average stack size                                     0.0       0.0   13800.0
 marketing flops                     2.594846E+15
 -------------------------------------------------------------------------------
 # multiplications                         124434
 max memory usage/rank              10.202571E+09
 # max total images/rank                        1
 # max 3D layers                                1
 # MPI messages exchanged                       0
 -------------------------------------------------------------------------------
 -                                                                             -
 -                      DBCSR MESSAGE PASSING PERFORMANCE                      -
 -                                                                             -
 -------------------------------------------------------------------------------
 ROUTINE             CALLS      AVE VOLUME [Bytes]
 MP_Bcast               26                     12.
 MP_Allreduce       448226                     10.
 MP_Alltoall        406252                6331420.
 MP_ISend           496864                 319943.
 MP_IRecv           496864                 319943.
 -------------------------------------------------------------------------------

 -------------------------------------------------------------------------------
 -                                                                             -
 -                                DBM STATISTICS                               -
 -                                                                             -
 -------------------------------------------------------------------------------
    M  x    N  x    K                                          COUNT     PERCENT
 -------------------------------------------------------------------------------

 -------------------------------------------------------------------------------
 -                                                                             -
 -                                GRID STATISTICS                              -
 -                                                                             -
 -------------------------------------------------------------------------------
 LP    KERNEL             BACKEND                              COUNT     PERCENT
 3     collocate ortho    GPU                             1574028339      17.11%
 2     collocate ortho    GPU                              192221768       2.09%
 2     integrate ortho    GPU                              185925915       2.02%
 5     integrate ortho    GPU                               92698461       1.01%
 0     collocate general  CPU                                  79722       0.00%
 1     integrate general  CPU                                  79722       0.00%
 4     collocate ortho    GPU                             2833639842      30.80%
 4     integrate ortho    GPU                             2792344874      30.35%
 3     integrate ortho    GPU                             1528920699      16.62%
 -------------------------------------------------------------------------------

 MEMORY| Estimated peak process memory [MiB]                                9437

 -------------------------------------------------------------------------------
 -                                                                             -
 -                         MESSAGE PASSING PERFORMANCE                         -
 -                                                                             -
 -------------------------------------------------------------------------------

 ROUTINE             CALLS      AVE VOLUME [Bytes]
 MP_Group                4
 MP_Bcast           156946                   7571.
 MP_Allreduce       407535                   7226.
 MP_Sync              1853
 -------------------------------------------------------------------------------


 -------------------------------------------------------------------------------
 -                                                                             -
 -                           R E F E R E N C E S                               -
 -                                                                             -
 -------------------------------------------------------------------------------
 
 CP2K version 2025.1, the CP2K developers group (2025).
 CP2K is freely available from https://www.cp2k.org/ .
 
 T. D. Kuehne, M. Iannuzzi, M. Del Ben, V. V. Rybkin, P. Seewald, F. Stein, T. 
 Laino, R. Z. Khaliullin, O. Schuett, F. Schiffmann, D. Golze, J. Wilhelm, S. 
 Chulkov, M. H. Bani-Hashemian, V. Weber, U. Borstnik, M. Taillefumier, A. S. 
 Jakobovits, A. Lazzaro, H. Pabst, T. Mueller, R. Schade, M. Guidon, S. 
 Andermatt, N. Holmberg, G. K. Schenter, A. Hehn, A. Bussy, F. Belleflamme, G. 
 Tabacchi, A. Gloess, M. Lass, I. Bethune, C. J. Mundy, C. Plessl, M. Watkins, 
 J. VandeVondele, M. Krack, J. Hutter.
 J. Chem. Phys. 152, 194103 (2020).
 CP2K: An electronic structure and molecular dynamics software package - 
 Quickstep: Efficient and accurate electronic structure calculations.
 https://doi.org/10.1063/5.0007045

 E. Caldeweyher, J. M. Mewes, S. Ehlert, S. Grimme.
 Phys. Chem. Chem. Phys. 22, 8499-8512 (2020).
 Extension and evaluation of the D4 London-dispersion model for periodic 
 systems.
 https://doi.org/10.1039/d0cp00502a

 E. Caldeweyher, S. Ehlert, A. Hansen, H. Neugebauer, S. Spicher, C. Bannwarth, 
 S. Grimme.
 J. Chem. Phys. 150, 154122 (2019).
 A generally applicable atomic-charge dependent London dispersion correction.
 https://doi.org/10.1063/1.5090222

 E. Caldeweyher, C. Bannwarth, S. Grimme.
 J. Chem. Phys. 147, 034112 (2017).
 Extension of the D3 dispersion coefficient model.
 https://doi.org/10.1063/1.4993215

 O. Schuett, P. Messmer, J. Hutter, J. VandeVondele.
 Electronic Structure Calculations on Graphics Processing Units, 173-190 (2016).
 GPU-Accelerated Sparse Matrix-Matrix Multiplication for Linear Scaling Density 
 Functional Theory.
 https://doi.org/10.1002/9781118670712.ch8

 A. Heinecke, G. Henry, M. Hutchinson, H. Pabst.
 Proceedings of Intl. Supercomputing Conference, 981-991 (2016).
 LIBXSMM: Accelerating Small Matrix Multiplications by Runtime Code Generation.
 https://doi.org/10.1109/SC.2016.83

 J. Hutter, M. Iannuzzi, F. Schiffmann, J. VandeVondele.
 WIREs Comput Mol Sci. 4, 15-25 (2014).
 CP2K: atomistic simulations of condensed matter systems.
 https://doi.org/10.1002/wcms.1159

 U. Borstnik, J. VandeVondele, V. Weber, J. Hutter.
 Parallel Comput. 40, 47-58 (2014).
 Sparse matrix multiplication: The distributed block-compressed sparse row 
 library.
 https://doi.org/10.1016/j.parco.2014.03.012

 A. Marek, V. Blum, R. Johanni, V. Havu, B. Lang, T. Auckenthaler, A. Heinecke, 
 H. Bungartz, H. Lederer.
 J. Phys. Condens. Matter 26, 213201 (2014).
 The ELPA library: scalable parallel eigenvalue solutions for electronic 
 structure theory and computational science.
 https://doi.org/10.1088/0953-8984/26/21/213201

 J. VandeVondele, J. Hutter.
 J. Chem. Phys. 127, 114105 (2007).
 Gaussian basis sets for accurate calculations on molecular systems in gas and 
 condensed phases.
 https://doi.org/10.1063/1.2770708

 T. D. Khne, M. Krack, F. R. Mohamed, M. Parrinello.
 Phys. Rev. Lett. 98, 066401 (2007).
 Efficient and accurate Car-Parrinello-like approach to Born-Oppenheimer 
 molecular dynamics.
 https://doi.org/10.1103/PhysRevLett.98.066401

 J. VandeVondele, M. Krack, F. Mohamed, M. Parrinello, T. Chassaing, J. Hutter.
 Comput. Phys. Commun. 167, 103-128 (2005).
 QUICKSTEP: Fast and accurate density functional calculations using a mixed 
 Gaussian and plane waves approach.
 https://doi.org/10.1016/j.cpc.2004.12.014

 M. Krack.
 Theor. Chem. Acc. 114, 145-152 (2005).
 Pseudopotentials for H to Kr optimized for gradient-corrected 
 exchange-correlation functionals.
 https://doi.org/10.1007/s00214-005-0655-y

 M. Frigo, S. G. Johnson.
 Proc. IEEE 93, 216-231 (2005).
 The design and implementation of FFTW3.
 https://doi.org/10.1109/JPROC.2004.840301

 J. Kolafa.
 J. Comput. Chem. 25, 335-342 (2004).
 Time-reversible always stable predictor-corrector method for molecular dynamics 
 of polarizable molecules.
 https://doi.org/10.1002/jcc.10385

 J. VandeVondele, J. Hutter.
 J. Chem. Phys. 118, 4365-4369 (2003).
 An efficient orbital transformation method for electronic structure 
 calculations.
 https://doi.org/10.1063/1.1543154

 C. Hartwigsen, S. Goedecker, J. Hutter.
 Phys. Rev. B 58, 3641-3662 (1998).
 Relativistic separable dual-space Gaussian pseudopotentials from H to Rn.
 https://doi.org/10.1103/PhysRevB.58.3641

 G. Lippert, J. Hutter, M. Parrinello.
 Mol. Phys. 92, 477-487 (1997).
 A hybrid Gaussian and plane wave density functional scheme.
 https://doi.org/10.1080/002689797170220

 S. Goedecker, M. Teter, J. Hutter.
 Phys. Rev. B 54, 1703-1710 (1996).
 Separable dual-space Gaussian pseudopotentials.
 https://doi.org/10.1103/PhysRevB.54.1703

 J. P. Perdew, K. Burke, M. Ernzerhof.
 Phys. Rev. Lett. 77, 3865-3868 (1996).
 Generalized gradient approximation made simple.
 https://doi.org/10.1103/PhysRevLett.77.3865

 R. H. Byrd, P. H. Lu, J. Nocedal, C. Y. Zhu.
 SIAM J. Sci. Comput. 16, 1190-1208 (1995).
 A Limited Memory Algorithm for Bound Constrained Optimization.
 https://doi.org/10.1137/0916069


 -------------------------------------------------------------------------------
 -                                                                             -
 -                                T I M I N G                                  -
 -                                                                             -
 -------------------------------------------------------------------------------
 SUBROUTINE                       CALLS  ASD         SELF TIME        TOTAL TIME
                                MAXIMUM       AVERAGE  MAXIMUM  AVERAGE  MAXIMUM
 CP2K                                 1  1.0      0.3      0.3 152005.6 152005.6
 cp_geo_opt                           1  2.0      0.0      0.0 152003.0 152003.0
 geoopt_lbfgs                         1  3.0      0.0      0.0 152003.0 152003.0
 cp_opt_gopt_step                   200  4.0      0.1      0.1 152002.8 152002.8
 cp_eval_at                         206  5.0      0.0      0.0 152000.2 152000.2
 qs_forces                          206  6.0      0.0      0.0 152000.2 152000.2
 qs_energies                        206  7.0      0.0      0.0 146356.5 146356.5
 scf_env_do_scf                     206  8.0      0.0      0.0 142532.2 142532.2
 scf_env_do_scf_inner_loop         6071  9.0      2.4      2.4 138375.6 138375.6
 rebuild_ks_matrix                 6277 10.9      0.0      0.0  90470.9  90470.9
 qs_ks_build_kohn_sham_matrix      6277 11.9      1.1      1.1  90470.9  90470.9
 qs_ks_update_qs_env               6289 10.0      0.1      0.1  85655.9  85655.9
 sum_up_and_integrate              6277 12.9      0.2      0.2  81894.7  81894.7
 integrate_v_rspace                6277 13.9     31.3     31.3  81824.0  81824.0
 grid_integrate_task_list          6277 14.9  81239.2  81239.2  81239.2  81239.2
 qs_rho_update_rho_low             6277 10.0      0.0      0.0  47289.0  47289.0
 calculate_rho_elec                6277 11.0    154.8    154.8  47289.0  47289.0
 grid_collocate_task_list          6277 12.0  46203.0  46203.0  46203.0  46203.0
 qs_scf_new_mos                    6071 10.0      0.0      0.0  10084.4  10084.4
 qs_scf_loop_do_ot                 6071 11.0      0.1      0.1  10084.3  10084.3
 dbcsr_multiply_generic          124434 15.0     26.2     26.2   9838.3   9838.3
 ot_scf_mini                       6071 12.0      0.3      0.3   9419.0   9419.0
 multiply_cannon                 124434 16.0    179.2    179.2   7017.1   7017.1
 multiply_cannon_loop            124434 17.0    380.9    380.9   6576.9   6576.9
 ot_mini                           6071 13.0      0.1      0.1   5875.2   5875.2
 qs_vxc_create                     6277 12.9      0.1      0.1   5696.5   5696.5
 xc_vxc_pw_create                  6277 13.9    289.2    289.2   5696.4   5696.4
 multiply_cannon_multrec         124434 18.0   3378.2   3378.2   5570.3   5570.3
 qs_ks_update_qs_env_forces         206  7.0      0.0      0.0   4902.8   4902.8
 init_scf_loop                      218  9.0      0.0      0.0   4143.9   4143.9
 qs_ot_get_derivative              6071 14.0      0.1      0.1   3769.8   3769.8
 fft_wrap_pw1pw2                 106915 15.2      2.6      2.6   3531.6   3531.6
 fft_wrap_pw1pw2_200              69253 16.6      0.3      0.3   3350.2   3350.2
 xc_rho_set_and_dset_create        6277 14.9    408.8    408.8   3337.4   3337.4
 -------------------------------------------------------------------------------

 The number of warnings for this run is : 0
 
 -------------------------------------------------------------------------------
  **** **** ******  **  PROGRAM ENDED AT                 2025-10-19 14:56:14.105
 ***** ** ***  *** **   PROGRAM RAN ON                              1530ce9174ef
 **    ****   ******    PROGRAM RAN BY                                 <unknown>
 ***** **    ** ** **   PROGRAM PROCESS ID                                   614
  **** **  *******  **  PROGRAM STOPPED IN                             /mnt/cp2k
