 DBCSR| CPU Multiplication driver                                           XSMM (U)
 DBCSR| Multrec recursion limit                                              512 (U)
 DBCSR| Multiplication stack size                                          30000 (D)
 DBCSR| Maximum elements for images                                    UNLIMITED (U)
 DBCSR| Multiplicative factor virtual images                                   1 (U)
 DBCSR| Use multiplication densification                                       F (D)
 DBCSR| Multiplication size stacks                                             3 (U)
 DBCSR| Use memory pool for CPU allocation                                     F (U)
 DBCSR| Number of 3D layers                                               SINGLE (U)
 DBCSR| Use MPI memory allocation                                              F (U)
 DBCSR| Use RMA algorithm                                                      F (U)
 DBCSR| Use Communication thread                                               T (U)
 DBCSR| Communication thread load                                             30 (D)
 DBCSR| MPI: My process id                                                     0
 DBCSR| MPI: Number of processes                                               1
 DBCSR| OMP: Current number of threads                                        16
 DBCSR| OMP: Max number of threads                                            16
 DBCSR| ACC: Number of devices/node                                            1
 DBCSR| ACC: Number of stack-buffers per thread                                8 (U)
 DBCSR| ACC: Avoid driver after busy                                           F (U)
 DBCSR| ACC: Process inhomogeneous stacks                                      T (U)
 DBCSR| ACC: Min. flop for processing                                          0 (U)
 DBCSR| ACC: Use G2G algorithm                                                 F (D)
 DBCSR| ACC: Min. flop for sorting                                          4000 (U)
 DBCSR| ACC: Number of binning bins                                         4096 (U)
 DBCSR| ACC: Size of binning bins                                             16 (U)
 DBCSR| ACC: GPU backend is enabled                                            T (D)
 DBCSR| Split modifier for TAS multiplication algorithm                  1.0E+00 (U)


  **** **** ******  **  PROGRAM STARTED AT               2025-10-29 02:34:43.607
 ***** ** ***  *** **   PROGRAM STARTED ON                          d7ba924352f5
 **    ****   ******    PROGRAM STARTED BY                             <unknown>
 ***** **    ** ** **   PROGRAM PROCESS ID                                   614
  **** **  *******  **  PROGRAM STARTED IN                             /mnt/cp2k

 CP2K| version string:                                       CP2K version 2025.1
 CP2K| source code revision number:                                  git:9635df4
 CP2K| cp2kflags: omp libint fftw3 libxc libgrpp pexsi elpa elpa_nvidia_gpu para
 CP2K|            llel scalapack cosma quip xsmm dbcsr_acc plumed2 spglib libdft
 CP2K|            td4 sirius libvori libbqb offload_cuda spla_gemm_offloading li
 CP2K|            ibvdwxc hdf5 trexio
 CP2K| is freely available from                            https://www.cp2k.org/
 CP2K| Program compiled at                          Tue Jan 14 21:07:27 UTC 2025
 CP2K| Program compiled on                                          eb3a76499499
 CP2K| Program compiled for                                           local_cuda
 CP2K| Data directory path                                        /opt/cp2k/data
 CP2K| Input file name                                           HAP_004_opt.inp

 GLOBAL| Force Environment number                                              1
 GLOBAL| Basis set file name                                        BASIS_MOLOPT
 GLOBAL| Potential file name                                      GTH_POTENTIALS
 GLOBAL| MM Potential file name                                     MM_POTENTIAL
 GLOBAL| Coordinate file name                                  HAP_004_clean.xyz
 GLOBAL| Method name                                                        CP2K
 GLOBAL| Project name                                                HAP_004_opt
 GLOBAL| Run type                                                        GEO_OPT
 GLOBAL| FFT library                                                       FFTW3
 GLOBAL| Diagonalization library                                            ELPA
 GLOBAL| DGEMM library                                                      SPLA
 GLOBAL| Minimum number of eigenvectors for ELPA usage                        16
 GLOBAL| Orthonormality check for eigenvectors                          DISABLED
 GLOBAL| Matrix multiplication library                                     COSMA
 GLOBAL| All-to-all communication in single precision                          F
 GLOBAL| FFTs using library dependent lengths                                  F
 GLOBAL| Grid backend                                                       AUTO
 GLOBAL| Global print level                                                  LOW
 GLOBAL| MPI I/O enabled                                                       T
 GLOBAL| Total number of message passing processes                             1
 GLOBAL| Number of threads for this process                                   16
 GLOBAL| This output is from process                                           0
 GLOBAL| OpenMP stack size per thread (OMP_STACKSIZE)                        16M
 GLOBAL| CPU model name                              Intel(R) Core(TM) i7-14700K
 GLOBAL| CPUID                                                              1002
 GLOBAL| Compiled for CPUID                                                    0

 *** HINT in environment.F:928 :: The compiler target flags (generic) used ***
 *** to build this binary cannot exploit all extensions of this CPU model  ***
 *** (x86_avx2). Consider compiler target flags as part of FCFLAGS and     ***
 *** CFLAGS (ARCH file).                                                   ***


 MEMORY| system memory details [Kb]
 MEMORY|                        rank 0           min           max       average
 MEMORY| MemTotal             32768664      32768664      32768664      32768664
 MEMORY| MemFree              30646712      30646712      30646712      30646712
 MEMORY| Buffers                 14152         14152         14152         14152
 MEMORY| Cached                 475736        475736        475736        475736
 MEMORY| Slab                   151536        151536        151536        151536
 MEMORY| SReclaimable            52448         52448         52448         52448
 MEMORY| MemLikelyFree        31189048      31189048      31189048      31189048


 GENERATE|  Preliminary Number of Bonds generated:                             0
 GENERATE|  Achieved consistency in connectivity generation.

 *******************************************************************************
 *******************************************************************************
 **                                                                           **
 **     #####                         ##              ##                      **
 **    ##   ##            ##          ##              ##                      **
 **   ##     ##                       ##            ######                    **
 **   ##     ##  ##   ##  ##   #####  ##  ##   ####   ##    #####    #####    **
 **   ##     ##  ##   ##  ##  ##      ## ##   ##      ##   ##   ##  ##   ##   **
 **   ##  ## ##  ##   ##  ##  ##      ####     ###    ##   ######   ######    **
 **    ##  ###   ##   ##  ##  ##      ## ##      ##   ##   ##       ##        **
 **     #######   #####   ##   #####  ##  ##  ####    ##    #####   ##        **
 **           ##                                                    ##        **
 **                                                                           **
 **                                                ... make the atoms dance   **
 **                                                                           **
 **            Copyright (C) by CP2K developers group (2000-2025)             **
 **                      J. Chem. Phys. 152, 194103 (2020)                    **
 **                                                                           **
 *******************************************************************************


 TOTAL NUMBERS AND MAXIMUM NUMBERS

  Total number of            - Atomic kinds:                                   5
                             - Atoms:                                        387
                             - Shell sets:                                   387
                             - Shells:                                      2015
                             - Primitive Cartesian functions:               2031
                             - Cartesian basis functions:                   5338
                             - Spherical basis functions:                   4983

  Maximum angular momentum of- Orbital basis functions:                        2
                             - Local part of the GTH pseudopotential:          2
                             - Non-local part of the GTH pseudopotential:      3


 SCF PARAMETERS         Density guess:                                    ATOMIC
                        --------------------------------------------------------
                        max_scf:                                             100
                        max_scf_history:                                       0
                        max_diis:                                              4
                        --------------------------------------------------------
                        eps_scf:                                        1.00E-06
                        eps_scf_history:                                0.00E+00
                        eps_diis:                                       1.00E-01
                        eps_eigval:                                     1.00E-05
                        --------------------------------------------------------
                        level_shift [a.u.]:                             0.000000
                        --------------------------------------------------------
                        Outer loop SCF in use 
                        No variables optimised in outer loop
                        eps_scf                                         1.00E-06
                        max_scf                                               50
                        No outer loop optimization
                        step_size                                       5.00E-01

 *******************************************************************************
 ***                     STARTING GEOMETRY OPTIMIZATION                      ***
 ***                                 L-BFGS                                  ***
 *******************************************************************************

 --------------------------
 OPTIMIZATION STEP:      1
 --------------------------

 Number of electrons:                                                       2432
 Number of occupied orbitals:                                               1216
 Number of molecular orbitals:                                              1216

 Number of orbital functions:                                               4983
 Number of independent orbital functions:                                   4983

 Extrapolation method: initial_guess


 SCF WAVEFUNCTION OPTIMIZATION

  ----------------------------------- OT ---------------------------------------
  Minimizer      : DIIS                : direct inversion
                                         in the iterative subspace
                                         using   7 DIIS vectors
                                         safer DIIS on
  Preconditioner : FULL_SINGLE_INVERSE : inversion of 
                                         H + eS - 2*(Sc)(c^T*H*c+const)(Sc)^T
  Precond_solver : DEFAULT
  stepsize       :    0.08000000                  energy_gap     :    0.08000000
  eps_taylor     :   0.10000E-15                  max_taylor     :             4
  ----------------------------------- OT ---------------------------------------

  Step     Update method      Time    Convergence         Total energy    Change
  ------------------------------------------------------------------------------
     1 OT DIIS     0.80E-01   17.8     0.01579559     -6712.9986509094 -6.71E+03
     2 OT DIIS     0.80E-01   12.3     0.00940969     -6789.3179497375 -7.63E+01
     3 OT DIIS     0.80E-01   12.3     0.00742434     -6820.5273132650 -3.12E+01
     4 OT DIIS     0.80E-01   12.3     0.00798532     -6839.3830330171 -1.89E+01
     5 OT DIIS     0.80E-01   12.2     0.00413237     -6857.3001222425 -1.79E+01
     6 OT DIIS     0.80E-01   12.1     0.00308941     -6871.6757159538 -1.44E+01
     7 OT DIIS     0.80E-01   12.2     0.00242436     -6880.7911087997 -9.12E+00
     8 OT DIIS     0.80E-01   12.2     0.00187577     -6887.1527788522 -6.36E+00
     9 OT DIIS     0.80E-01   12.2     0.00144616     -6891.4617477226 -4.31E+00
    10 OT DIIS     0.80E-01   12.4     0.00113961     -6894.2110733342 -2.75E+00
    11 OT DIIS     0.80E-01   12.0     0.00091032     -6896.0821771623 -1.87E+00
    12 OT DIIS     0.80E-01   12.1     0.00074285     -6897.3715352733 -1.29E+00
    13 OT DIIS     0.80E-01   12.1     0.00061314     -6898.2932059162 -9.22E-01
    14 OT DIIS     0.80E-01   12.1     0.00053759     -6898.8300371661 -5.37E-01
    15 OT DIIS     0.80E-01   12.2     0.00046131     -6899.3337164841 -5.04E-01
    16 OT DIIS     0.80E-01   12.1     0.00040462     -6899.7232323829 -3.90E-01
    17 OT DIIS     0.80E-01   12.1     0.00036299     -6899.9926579187 -2.69E-01
    18 OT DIIS     0.80E-01   12.1     0.00032083     -6900.2407343943 -2.48E-01
    19 OT DIIS     0.80E-01   12.1     0.00028514     -6900.4444882263 -2.04E-01
    20 OT DIIS     0.80E-01   12.1     0.00025457     -6900.6185461117 -1.74E-01
    21 OT DIIS     0.80E-01   12.5     0.00022992     -6900.7453338758 -1.27E-01
    22 OT DIIS     0.80E-01   12.1     0.00020555     -6900.8719191487 -1.27E-01
    23 OT DIIS     0.80E-01   12.2     0.00018438     -6900.9657864302 -9.39E-02
    24 OT DIIS     0.80E-01   12.2     0.00016698     -6901.0412995234 -7.55E-02
    25 OT DIIS     0.80E-01   12.4     0.00015221     -6901.1066844398 -6.54E-02
    26 OT DIIS     0.80E-01   12.1     0.00013723     -6901.1627744905 -5.61E-02
    27 OT DIIS     0.80E-01   12.2     0.00012629     -6901.2070330215 -4.43E-02
    28 OT DIIS     0.80E-01   12.2     0.00011578     -6901.2418325964 -3.48E-02
    29 OT DIIS     0.80E-01   12.1     0.00010441     -6901.2881238595 -4.63E-02
    30 OT DIIS     0.80E-01   12.3     0.00009674     -6901.3119399107 -2.38E-02
    31 OT DIIS     0.80E-01   12.1     0.00008887     -6901.3378558008 -2.59E-02
    32 OT DIIS     0.80E-01   12.1     0.00007984     -6901.3666353746 -2.88E-02
    33 OT DIIS     0.80E-01   12.2     0.00007483     -6901.3829552511 -1.63E-02
    34 OT DIIS     0.80E-01   12.1     0.00007068     -6901.3965695313 -1.36E-02
    35 OT DIIS     0.80E-01   12.2     0.00006589     -6901.4114105206 -1.48E-02
    36 OT DIIS     0.80E-01   12.1     0.00006201     -6901.4262912975 -1.49E-02
    37 OT DIIS     0.80E-01   12.1     0.00005930     -6901.4365614917 -1.03E-02
    38 OT DIIS     0.80E-01   12.2     0.00005708     -6901.4460010045 -9.44E-03
    39 OT DIIS     0.80E-01   12.1     0.00005445     -6901.4581775860 -1.22E-02
    40 OT DIIS     0.80E-01   12.1     0.00005268     -6901.4675118181 -9.33E-03
    41 OT DIIS     0.80E-01   12.2     0.00005165     -6901.4733446660 -5.83E-03
    42 OT DIIS     0.80E-01   12.1     0.00005056     -6901.4804557926 -7.11E-03
    43 OT DIIS     0.80E-01   12.1     0.00004954     -6901.4885837232 -8.13E-03
    44 OT DIIS     0.80E-01   12.1     0.00004886     -6901.4946050693 -6.02E-03
    45 OT DIIS     0.80E-01   12.2     0.00004832     -6901.5004884175 -5.88E-03
    46 OT DIIS     0.80E-01   12.2     0.00004777     -6901.5070997216 -6.61E-03
    47 OT DIIS     0.80E-01   12.1     0.00004732     -6901.5132133376 -6.11E-03
    48 OT DIIS     0.80E-01   12.3     0.00004706     -6901.5171279796 -3.91E-03
    49 OT DIIS     0.80E-01   12.1     0.00004671     -6901.5228546889 -5.73E-03
    50 OT DIIS     0.80E-01   12.1     0.00004621     -6901.5298075297 -6.95E-03
    51 OT DIIS     0.80E-01   12.2     0.00004571     -6901.5364434110 -6.64E-03
    52 OT DIIS     0.80E-01   12.1     0.00004487     -6901.5450000951 -8.56E-03
    53 OT DIIS     0.80E-01   12.1     0.00004363     -6901.5553450626 -1.03E-02
    54 OT DIIS     0.80E-01   12.1     0.00004252     -6901.5626547586 -7.31E-03
    55 OT DIIS     0.80E-01   12.0     0.00004178     -6901.5665324433 -3.88E-03
    56 OT DIIS     0.80E-01   12.1     0.00004074     -6901.5791939547 -1.27E-02
    57 OT DIIS     0.80E-01   12.1     0.00003803     -6901.5853416359 -6.15E-03
    58 OT DIIS     0.80E-01   12.1     0.00003615     -6901.5926479903 -7.31E-03
    59 OT DIIS     0.80E-01   12.1     0.00003329     -6901.6019519541 -9.30E-03
    60 OT DIIS     0.80E-01   12.1     0.00003005     -6901.6113346982 -9.38E-03
    61 OT DIIS     0.80E-01   12.1     0.00002882     -6901.6151816280 -3.85E-03
    62 OT DIIS     0.80E-01   12.1     0.00002922     -6901.6175803315 -2.40E-03
    63 OT DIIS     0.80E-01   12.2     0.00002705     -6901.6226467468 -5.07E-03
    64 OT DIIS     0.80E-01   12.1     0.00003246     -6901.6227732474 -1.27E-04
    65 OT DIIS     0.80E-01   12.1     0.00003078     -6901.6301873584 -7.41E-03
    66 OT DIIS     0.80E-01   12.1     0.00002452     -6901.6310842878 -8.97E-04
    67 OT DIIS     0.80E-01   12.1     0.00002094     -6901.6334240181 -2.34E-03
    68 OT DIIS     0.80E-01   12.2     0.00002028     -6901.6346237989 -1.20E-03
    69 OT DIIS     0.80E-01   12.0     0.00001817     -6901.6378123885 -3.19E-03
    70 OT DIIS     0.80E-01   12.1     0.00001747     -6901.6403587530 -2.55E-03
    71 OT DIIS     0.80E-01   12.2     0.00001619     -6901.6415462901 -1.19E-03
    72 OT DIIS     0.80E-01   12.1     0.00001470     -6901.6433041616 -1.76E-03
    73 OT DIIS     0.80E-01   12.1     0.00001396     -6901.6445591932 -1.26E-03
    74 OT DIIS     0.80E-01   12.0     0.00001364     -6901.6450762033 -5.17E-04
    75 OT DIIS     0.80E-01   12.1     0.00001271     -6901.6457551158 -6.79E-04
    76 OT DIIS     0.80E-01   12.1     0.00001227     -6901.6467937497 -1.04E-03
    77 OT DIIS     0.80E-01   12.1     0.00001153     -6901.6475363338 -7.43E-04
    78 OT DIIS     0.80E-01   12.1     0.00001098     -6901.6479893169 -4.53E-04
    79 OT DIIS     0.80E-01   12.1     0.00001015     -6901.6489587841 -9.69E-04
    80 OT DIIS     0.80E-01   12.0     0.00000976     -6901.6494445387 -4.86E-04
    81 OT DIIS     0.80E-01   12.2     0.00000946     -6901.6497725123 -3.28E-04
    82 OT DIIS     0.80E-01   12.2     0.00000919     -6901.6500930320 -3.21E-04
    83 OT DIIS     0.80E-01   12.2     0.00000890     -6901.6505845795 -4.92E-04
    84 OT DIIS     0.80E-01   12.1     0.00000862     -6901.6511989608 -6.14E-04
    85 OT DIIS     0.80E-01   12.1     0.00000827     -6901.6516091542 -4.10E-04
    86 OT DIIS     0.80E-01   12.1     0.00000767     -6901.6523664362 -7.57E-04
    87 OT DIIS     0.80E-01   12.1     0.00000742     -6901.6527540511 -3.88E-04
    88 OT DIIS     0.80E-01   12.2     0.00000723     -6901.6529605741 -2.07E-04
    89 OT DIIS     0.80E-01   12.1     0.00000701     -6901.6533178752 -3.57E-04
    90 OT DIIS     0.80E-01   12.3     0.00000671     -6901.6537273054 -4.09E-04
    91 OT DIIS     0.80E-01   12.1     0.00000662     -6901.6540380749 -3.11E-04
    92 OT DIIS     0.80E-01   12.1     0.00000642     -6901.6541729409 -1.35E-04
    93 OT DIIS     0.80E-01   12.2     0.00000625     -6901.6545257791 -3.53E-04
    94 OT DIIS     0.80E-01   12.1     0.00000580     -6901.6550794943 -5.54E-04
    95 OT DIIS     0.80E-01   12.1     0.00000563     -6901.6552696065 -1.90E-04
    96 OT DIIS     0.80E-01   12.2     0.00000546     -6901.6554773609 -2.08E-04
    97 OT DIIS     0.80E-01   12.4     0.00000532     -6901.6556740452 -1.97E-04
    98 OT DIIS     0.80E-01   12.4     0.00000514     -6901.6559074626 -2.33E-04
    99 OT DIIS     0.80E-01   12.4     0.00000491     -6901.6562000981 -2.93E-04
   100 OT DIIS     0.80E-01   12.7     0.00000463     -6901.6565223904 -3.22E-04

  Leaving inner SCF loop after reaching   100 steps.


  Electronic density on regular grids:      -2432.0000000897       -0.0000000897
  Core density on regular grids:             2431.9999999988       -0.0000000012
  Total charge density on r-space grids:       -0.0000000908
  Total charge density g-space grids:          -0.0000000908

  Overlap energy of the core charge distribution:               0.01856379335449
  Self energy of the core charge distribution:             -16017.19408509233290
  Core Hamiltonian energy:                                   4305.44743472320533
  Hartree energy:                                            6137.67540431009729
  Exchange-correlation energy:                              -1325.83931867995102
  Dispersion energy:                                           -1.76452144473589

  Total energy:                                             -6901.65652239036444

  outer SCF iter =    1 RMS gradient =   0.46E-05 energy =      -6901.6565223904

  ----------------------------------- OT ---------------------------------------
  Minimizer      : DIIS                : direct inversion
                                         in the iterative subspace
                                         using   7 DIIS vectors
                                         safer DIIS on
  Preconditioner : FULL_SINGLE_INVERSE : inversion of 
                                         H + eS - 2*(Sc)(c^T*H*c+const)(Sc)^T
  Precond_solver : DEFAULT
  stepsize       :    0.08000000                  energy_gap     :    0.08000000
  eps_taylor     :   0.10000E-15                  max_taylor     :             4
  ----------------------------------- OT ---------------------------------------

  Step     Update method      Time    Convergence         Total energy    Change
  ------------------------------------------------------------------------------
     1 OT DIIS     0.80E-01   30.0     0.00008362     -6901.6566804736 -1.58E-04
     2 OT DIIS     0.80E-01   13.1     0.00008983     -6901.6584760916 -1.80E-03
     3 OT DIIS     0.80E-01   18.7     0.00010343     -6901.6588601897 -3.84E-04
     4 OT DIIS     0.80E-01   23.3     0.00008184     -6901.6594127545 -5.53E-04
     5 OT DIIS     0.80E-01   21.3     0.00005079     -6901.6599784834 -5.66E-04
     6 OT DIIS     0.80E-01   28.6     0.00004029     -6901.6602223289 -2.44E-04
     7 OT DIIS     0.80E-01   27.2     0.00003348     -6901.6603869614 -1.65E-04
     8 OT DIIS     0.80E-01   25.9     0.00002295     -6901.6605384078 -1.51E-04
     9 OT DIIS     0.80E-01   25.6     0.00001915     -6901.6606317905 -9.34E-05
    10 OT DIIS     0.80E-01   29.1     0.00002133     -6901.6607054064 -7.36E-05
    11 OT DIIS     0.80E-01   33.1     0.00001504     -6901.6608062009 -1.01E-04
    12 OT DIIS     0.80E-01   32.0     0.00001723     -6901.6608723797 -6.62E-05
    13 OT DIIS     0.80E-01   28.9     0.00001655     -6901.6609342701 -6.19E-05
    14 OT DIIS     0.80E-01   26.6     0.00001500     -6901.6609979097 -6.36E-05
    15 OT DIIS     0.80E-01   25.7     0.00001511     -6901.6610373711 -3.95E-05
    16 OT DIIS     0.80E-01   27.3     0.00001376     -6901.6610638446 -2.65E-05
    17 OT DIIS     0.80E-01   27.8     0.00001229     -6901.6610971500 -3.33E-05
    18 OT DIIS     0.80E-01   28.4     0.00001234     -6901.6611398117 -4.27E-05
    19 OT DIIS     0.80E-01   29.1     0.00001091     -6901.6611353181  4.49E-06
    20 OT DIIS     0.80E-01   31.4     0.00001092     -6901.6611555172 -2.02E-05
    21 OT DIIS     0.80E-01   30.7     0.00000985     -6901.6611734080 -1.79E-05
    22 OT DIIS     0.80E-01   31.9     0.00000917     -6901.6611826529 -9.24E-06
    23 OT DIIS     0.80E-01   27.9     0.00000865     -6901.6611935280 -1.09E-05
    24 OT DIIS     0.80E-01   26.4     0.00000820     -6901.6612042232 -1.07E-05
    25 OT DIIS     0.80E-01   25.1     0.00000773     -6901.6612197098 -1.55E-05
    26 OT DIIS     0.80E-01   26.6     0.00000782     -6901.6612376674 -1.80E-05
    27 OT DIIS     0.80E-01   28.1     0.00000806     -6901.6612466727 -9.01E-06
    28 OT DIIS     0.80E-01   30.3     0.00000803     -6901.6612661120 -1.94E-05
    29 OT DIIS     0.80E-01   30.1     0.00000800     -6901.6612834924 -1.74E-05
    30 OT DIIS     0.80E-01   27.5     0.00000809     -6901.6612928310 -9.34E-06
    31 OT DIIS     0.80E-01   25.5     0.00000789     -6901.6613043426 -1.15E-05
    32 OT DIIS     0.80E-01   25.5     0.00000770     -6901.6613143673 -1.00E-05
    33 OT DIIS     0.80E-01   27.5     0.00000725     -6901.6613268521 -1.25E-05
    34 OT DIIS     0.80E-01   28.8     0.00000706     -6901.6613342999 -7.45E-06
    35 OT DIIS     0.80E-01   28.1     0.00000707     -6901.6613436064 -9.31E-06
    36 OT DIIS     0.80E-01   28.7     0.00000691     -6901.6613549059 -1.13E-05
    37 OT DIIS     0.80E-01   29.9     0.00000691     -6901.6613666494 -1.17E-05
    38 OT DIIS     0.80E-01   30.3     0.00000697     -6901.6613764309 -9.78E-06
    39 OT DIIS     0.80E-01   29.5     0.00000699     -6901.6613891689 -1.27E-05
    40 OT DIIS     0.80E-01   28.2     0.00000710     -6901.6614031265 -1.40E-05
    41 OT DIIS     0.80E-01   27.7     0.00000693     -6901.6614194647 -1.63E-05
    42 OT DIIS     0.80E-01   26.7     0.00000694     -6901.6614215484 -2.08E-06
    43 OT DIIS     0.80E-01   28.8     0.00000699     -6901.6614386103 -1.71E-05
    44 OT DIIS     0.80E-01   32.4     0.00000683     -6901.6614461742 -7.56E-06
    45 OT DIIS     0.80E-01   34.1     0.00000674     -6901.6614537154 -7.54E-06
    46 OT DIIS     0.80E-01   30.5     0.00000662     -6901.6614601814 -6.47E-06
    47 OT DIIS     0.80E-01   27.9     0.00000650     -6901.6614687325 -8.55E-06
    48 OT DIIS     0.80E-01   27.3     0.00000647     -6901.6614794499 -1.07E-05
    49 OT DIIS     0.80E-01   29.2     0.00000641     -6901.6614927149 -1.33E-05
    50 OT DIIS     0.80E-01   28.5     0.00000646     -6901.6614946994 -1.98E-06
    51 OT DIIS     0.80E-01   28.5     0.00000652     -6901.6615156865 -2.10E-05
    52 OT DIIS     0.80E-01   29.9     0.00000660     -6901.6615255872 -9.90E-06
    53 OT DIIS     0.80E-01   30.0     0.00000669     -6901.6615338433 -8.26E-06
    54 OT DIIS     0.80E-01   28.8     0.00000662     -6901.6615415573 -7.71E-06
    55 OT DIIS     0.80E-01   27.6     0.00000653     -6901.6615497009 -8.14E-06
    56 OT DIIS     0.80E-01   26.7     0.00000642     -6901.6615602226 -1.05E-05
    57 OT SD       0.80E-01   27.3     0.00000627     -6901.6615703524 -1.01E-05
    58 OT DIIS     0.80E-01   31.2     0.00001266     -6901.6615823794 -1.20E-05
    59 OT DIIS     0.80E-01   33.1     0.00000635     -6901.6616005847 -1.82E-05
    60 OT DIIS     0.80E-01   31.5     0.00000634     -6901.6616086313 -8.05E-06
    61 OT DIIS     0.80E-01   29.5     0.00000647     -6901.6616216945 -1.31E-05
    62 OT DIIS     0.80E-01   27.2     0.00000647     -6901.6616296471 -7.95E-06
    63 OT DIIS     0.80E-01   26.9     0.00000662     -6901.6616413369 -1.17E-05
    64 OT SD       0.80E-01   28.0     0.00000839     -6901.6618106864 -1.69E-04
    65 OT DIIS     0.80E-01   28.3     0.00003097     -6901.6617894341  2.13E-05
    66 OT DIIS     0.80E-01   28.0     0.00000614     -6901.6617989012 -9.47E-06
    67 OT DIIS     0.80E-01   28.7     0.00000693     -6901.6618780373 -7.91E-05
    68 OT SD       0.80E-01   29.8     0.00000669     -6901.6619874163 -1.09E-04
    69 OT SD       0.80E-01   29.3     0.00001718     -6901.6619902139 -2.80E-06
    70 OT DIIS     0.80E-01   28.1     0.00009131     -6901.6617129101  2.77E-04
    71 OT DIIS     0.80E-01   28.3     0.00000548     -6901.6620185770 -3.06E-04
    72 OT DIIS     0.80E-01   30.2     0.00000531     -6901.6620226323 -4.06E-06
    73 OT SD       0.80E-01   31.6     0.00000600     -6901.6621095713 -8.69E-05
    74 OT DIIS     0.80E-01   33.7     0.00001728     -6901.6621101459 -5.75E-07
    75 OT SD       0.80E-01   39.3     0.00000599     -6901.6622307188 -1.21E-04
    76 OT SD       0.80E-01   38.1     0.00001630     -6901.6622312710 -5.52E-07
    77 OT DIIS     0.80E-01   36.2     0.00008351     -6901.6619909216  2.40E-04
    78 OT DIIS     0.80E-01   32.4     0.00000524     -6901.6623221282 -3.31E-04
    79 OT DIIS     0.80E-01   30.4     0.00000584     -6901.6623628061 -4.07E-05
    80 OT SD       0.80E-01   30.3     0.00000633     -6901.6623803135 -1.75E-05
    81 OT SD       0.80E-01   30.7     0.00001773     -6901.6623788970  1.42E-06
    82 OT DIIS     0.80E-01   31.1     0.00009326     -6901.6620783370  3.01E-04
    83 OT DIIS     0.80E-01   32.3     0.00000497     -6901.6623696788 -2.91E-04
    84 OT SD       0.80E-01   31.7     0.00000439     -6901.6623722719 -2.59E-06
    85 OT DIIS     0.80E-01   31.8     0.00000987     -6901.6623768954 -4.62E-06
    86 OT SD       0.80E-01   31.6     0.00000446     -6901.6623783924 -1.50E-06
    87 OT DIIS     0.80E-01   31.1     0.00001226     -6901.6623807884 -2.40E-06
    88 OT DIIS     0.80E-01   30.5     0.00000447     -6901.6623897306 -8.94E-06
    89 OT DIIS     0.80E-01   30.5     0.00000393     -6901.6624029685 -1.32E-05
    90 OT DIIS     0.80E-01   30.8     0.00000375     -6901.6624084620 -5.49E-06
    91 OT DIIS     0.80E-01   30.1     0.00000372     -6901.6624128398 -4.38E-06
    92 OT DIIS     0.80E-01   29.5     0.00000368     -6901.6624204979 -7.66E-06
    93 OT DIIS     0.80E-01   30.8     0.00000368     -6901.6624250649 -4.57E-06
    94 OT DIIS     0.80E-01   29.9     0.00000379     -6901.6624391607 -1.41E-05
    95 OT DIIS     0.80E-01   30.0     0.00000366     -6901.6624705094 -3.13E-05
    96 OT DIIS     0.80E-01   30.8     0.00000359     -6901.6624889666 -1.85E-05
    97 OT DIIS     0.80E-01   29.6     0.00000364     -6901.6624949485 -5.98E-06
    98 OT DIIS     0.80E-01   28.7     0.00000369     -6901.6625172169 -2.23E-05
    99 OT DIIS     0.80E-01   28.7     0.00000364     -6901.6625501062 -3.29E-05
   100 OT DIIS     0.80E-01   29.4     0.00000374     -6901.6625932807 -4.32E-05

  Leaving inner SCF loop after reaching   100 steps.


  Electronic density on regular grids:      -2432.0000000896       -0.0000000896
  Core density on regular grids:             2431.9999999988       -0.0000000012
  Total charge density on r-space grids:       -0.0000000908
  Total charge density g-space grids:          -0.0000000908

  Overlap energy of the core charge distribution:               0.01856379335449
  Self energy of the core charge distribution:             -16017.19408509233290
  Core Hamiltonian energy:                                   4305.45004006612817
  Hartree energy:                                            6137.67445098595363
  Exchange-correlation energy:                              -1325.84704158905924
  Dispersion energy:                                           -1.76452144473589

  Total energy:                                             -6901.66259328069191

  outer SCF iter =    2 RMS gradient =   0.37E-05 energy =      -6901.6625932807

  ----------------------------------- OT ---------------------------------------
  Minimizer      : DIIS                : direct inversion
                                         in the iterative subspace
                                         using   7 DIIS vectors
                                         safer DIIS on
  Preconditioner : FULL_SINGLE_INVERSE : inversion of 
                                         H + eS - 2*(Sc)(c^T*H*c+const)(Sc)^T
  Precond_solver : DEFAULT
  stepsize       :    0.08000000                  energy_gap     :    0.08000000
  eps_taylor     :   0.10000E-15                  max_taylor     :             4
  ----------------------------------- OT ---------------------------------------

  Step     Update method      Time    Convergence         Total energy    Change
  ------------------------------------------------------------------------------
     1 OT DIIS     0.80E-01   61.7     0.00000383     -6901.6626284386 -3.52E-05
     2 OT DIIS     0.80E-01   28.1     0.00000915     -6901.6626304213 -1.98E-06
     3 OT DIIS     0.80E-01   27.7     0.00000398     -6901.6626338334 -3.41E-06
     4 OT DIIS     0.80E-01   27.7     0.00000344     -6901.6626359569 -2.12E-06
     5 OT DIIS     0.80E-01   29.5     0.00000296     -6901.6626381421 -2.19E-06
     6 OT DIIS     0.80E-01   29.0     0.00000318     -6901.6626420507 -3.91E-06
     7 OT DIIS     0.80E-01   27.4     0.00000285     -6901.6626465435 -4.49E-06
     8 OT DIIS     0.80E-01   26.3     0.00000304     -6901.6626559131 -9.37E-06
     9 OT DIIS     0.80E-01   27.7     0.00000286     -6901.6626661726 -1.03E-05
    10 OT DIIS     0.80E-01   31.8     0.00000292     -6901.6626746761 -8.50E-06
    11 OT DIIS     0.80E-01   23.0     0.00000295     -6901.6626848983 -1.02E-05
    12 OT DIIS     0.80E-01   27.8     0.00000288     -6901.6626898701 -4.97E-06
    13 OT DIIS     0.80E-01   28.0     0.00000276     -6901.6626968927 -7.02E-06
    14 OT DIIS     0.80E-01   28.6     0.00000266     -6901.6627054295 -8.54E-06
    15 OT DIIS     0.80E-01   29.4     0.00000274     -6901.6627129083 -7.48E-06
    16 OT DIIS     0.80E-01   29.8     0.00000261     -6901.6627197050 -6.80E-06
    17 OT DIIS     0.80E-01   30.2     0.00000269     -6901.6627219920 -2.29E-06
    18 OT DIIS     0.80E-01   30.1     0.00000267     -6901.6627289887 -7.00E-06
    19 OT DIIS     0.80E-01   30.3     0.00000271     -6901.6627310355 -2.05E-06
    20 OT DIIS     0.80E-01   30.0     0.00000280     -6901.6627354697 -4.43E-06
    21 OT DIIS     0.80E-01   29.8     0.00000265     -6901.6627381537 -2.68E-06
    22 OT DIIS     0.80E-01   30.2     0.00000258     -6901.6627387128 -5.59E-07
    23 OT DIIS     0.80E-01   30.2     0.00000260     -6901.6627410850 -2.37E-06
    24 OT DIIS     0.80E-01   30.1     0.00000242     -6901.6627420033 -9.18E-07
    25 OT DIIS     0.80E-01   30.2     0.00000240     -6901.6627430654 -1.06E-06
    26 OT DIIS     0.80E-01   30.2     0.00000234     -6901.6627446643 -1.60E-06
    27 OT DIIS     0.80E-01   29.0     0.00000233     -6901.6627448749 -2.11E-07
    28 OT DIIS     0.80E-01   27.8     0.00000232     -6901.6627464072 -1.53E-06
    29 OT DIIS     0.80E-01   26.6     0.00000228     -6901.6627478135 -1.41E-06
    30 OT DIIS     0.80E-01   26.5     0.00000228     -6901.6627486728 -8.59E-07
    31 OT DIIS     0.80E-01   32.0     0.00000232     -6901.6627506284 -1.96E-06
    32 OT DIIS     0.80E-01   33.4     0.00000229     -6901.6627513480 -7.20E-07
    33 OT DIIS     0.80E-01   30.6     0.00000232     -6901.6627530123 -1.66E-06
    34 OT SD       0.80E-01   28.0     0.00000229     -6901.6627546342 -1.62E-06
    35 OT DIIS     0.80E-01   26.7     0.00000573     -6901.6627556244 -9.90E-07
    36 OT SD       0.80E-01   27.6     0.00000258     -6901.6627610251 -5.40E-06
    37 OT DIIS     0.80E-01   28.9     0.00000943     -6901.6627600139  1.01E-06
    38 OT DIIS     0.80E-01   28.3     0.00000257     -6901.6627697292 -9.72E-06
    39 OT SD       0.80E-01   28.6     0.00000278     -6901.6627772358 -7.51E-06
    40 OT DIIS     0.80E-01   30.5     0.00001074     -6901.6627748419  2.39E-06
    41 OT SD       0.80E-01   30.2     0.00000285     -6901.6628268459 -5.20E-05
    42 OT SD       0.80E-01   30.6     0.00000601     -6901.6628268989 -5.30E-08
    43 OT DIIS     0.80E-01   29.4     0.00002410     -6901.6628039807  2.29E-05
    44 OT DIIS     0.80E-01   28.1     0.00000214     -6901.6628330662 -2.91E-05
    45 OT DIIS     0.80E-01   26.6     0.00000269     -6901.6628473269 -1.43E-05
    46 OT SD       0.80E-01   26.4     0.00000264     -6901.6628508609 -3.53E-06
    47 OT DIIS     0.80E-01   29.4     0.00001031     -6901.6628478645  3.00E-06
    48 OT SD       0.80E-01   32.8     0.00000222     -6901.6628648000 -1.69E-05
    49 OT DIIS     0.80E-01   31.8     0.00000873     -6901.6628626902  2.11E-06
    50 OT DIIS     0.80E-01   29.2     0.00000225     -6901.6628715429 -8.85E-06
    51 OT DIIS     0.80E-01   27.0     0.00000140     -6901.6628783038 -6.76E-06
    52 OT DIIS     0.80E-01   25.4     0.00000157     -6901.6628816646 -3.36E-06
    53 OT SD       0.80E-01   29.4     0.00000150     -6901.6628825406 -8.76E-07
    54 OT SD       0.80E-01   31.0     0.00000393     -6901.6628826964 -1.56E-07
    55 OT DIIS     0.80E-01   30.1     0.00002153     -6901.6628673061  1.54E-05
    56 OT SD       0.80E-01   29.9     0.00000126     -6901.6628824757 -1.52E-05
    57 OT DIIS     0.80E-01   29.4     0.00000364     -6901.6628825469 -7.12E-08
    58 OT SD       0.80E-01   30.7     0.00000118     -6901.6628832558 -7.09E-07
    59 OT DIIS     0.80E-01   28.5     0.00000310     -6901.6628833927 -1.37E-07
    60 OT DIIS     0.80E-01   27.4     0.00000116     -6901.6628838773 -4.85E-07
    61 OT DIIS     0.80E-01   27.0     0.00000118     -6901.6628847384 -8.61E-07
    62 OT DIIS     0.80E-01   30.4     0.00000097     -6901.6628855586 -8.20E-07

  *** SCF run converged in    62 steps ***


  Electronic density on regular grids:      -2432.0000001491       -0.0000001491
  Core density on regular grids:             2431.9999999988       -0.0000000012
  Total charge density on r-space grids:       -0.0000001502
  Total charge density g-space grids:          -0.0000001502

  Overlap energy of the core charge distribution:               0.01856379335449
  Self energy of the core charge distribution:             -16017.19408509233290
  Core Hamiltonian energy:                                   4305.44725479062618
  Hartree energy:                                            6137.67512475061267
  Exchange-correlation energy:                              -1325.84522235609734
  Dispersion energy:                                           -1.76452144473589

  Total energy:                                             -6901.66288555857318

  outer SCF iter =    3 RMS gradient =   0.97E-06 energy =      -6901.6628855586
  outer SCF loop converged in   3 iterations or  262 steps


 ENERGY| Total FORCE_EVAL ( QS ) energy [hartree]          -6901.662885841141360

 Number of electrons:                                                       2432
 Number of occupied orbitals:                                               1216
 Number of molecular orbitals:                                              1216

 Number of orbital functions:                                               4983
 Number of independent orbital functions:                                   4983

 Extrapolation method: ASPC


 SCF WAVEFUNCTION OPTIMIZATION

  ----------------------------------- OT ---------------------------------------
  Minimizer      : DIIS                : direct inversion
                                         in the iterative subspace
                                         using   7 DIIS vectors
                                         safer DIIS on
  Preconditioner : FULL_SINGLE_INVERSE : inversion of 
                                         H + eS - 2*(Sc)(c^T*H*c+const)(Sc)^T
  Precond_solver : DEFAULT
  stepsize       :    0.08000000                  energy_gap     :    0.08000000
  eps_taylor     :   0.10000E-15                  max_taylor     :             4
  ----------------------------------- OT ---------------------------------------

  Step     Update method      Time    Convergence         Total energy    Change
  ------------------------------------------------------------------------------
     1 OT DIIS     0.80E-01   24.3     0.00403110     -6908.2516713854 -6.91E+03
     2 OT DIIS     0.80E-01   27.6     0.00368385     -6912.4688815231 -4.22E+00
     3 OT DIIS     0.80E-01   28.1     0.00537359     -6912.3458359044  1.23E-01
     4 OT DIIS     0.80E-01   29.3     0.00319095     -6913.8584004683 -1.51E+00
     5 OT DIIS     0.80E-01   29.4     0.00278732     -6914.1100722906 -2.52E-01
     6 OT DIIS     0.80E-01   28.5     0.00122918     -6914.4632506813 -3.53E-01
     7 OT DIIS     0.80E-01   28.7     0.00066778     -6914.5498194498 -8.66E-02
     8 OT DIIS     0.80E-01   29.2     0.00076156     -6914.5615246126 -1.17E-02
     9 OT DIIS     0.80E-01   29.7     0.00038813     -6914.5825411575 -2.10E-02
    10 OT DIIS     0.80E-01   30.6     0.00030093     -6914.5863809472 -3.84E-03
    11 OT DIIS     0.80E-01   30.3     0.00014915     -6914.5922668182 -5.89E-03
    12 OT DIIS     0.80E-01   30.1     0.00021349     -6914.5918220701  4.45E-04
    13 OT DIIS     0.80E-01   30.4     0.00019982     -6914.5929794286 -1.16E-03
    14 OT DIIS     0.80E-01   30.1     0.00011381     -6914.5938842041 -9.05E-04
    15 OT DIIS     0.80E-01   30.4     0.00007616     -6914.5942767248 -3.93E-04
    16 OT DIIS     0.80E-01   30.2     0.00008404     -6914.5944212473 -1.45E-04
    17 OT DIIS     0.80E-01   30.5     0.00004913     -6914.5946289059 -2.08E-04
    18 OT DIIS     0.80E-01   30.4     0.00003685     -6914.5947163624 -8.75E-05
    19 OT DIIS     0.80E-01   30.4     0.00002203     -6914.5947911973 -7.48E-05
    20 OT DIIS     0.80E-01   26.9     0.00002674     -6914.5948186655 -2.75E-05
    21 OT DIIS     0.80E-01   26.1     0.00002336     -6914.5948539299 -3.53E-05
    22 OT DIIS     0.80E-01   25.9     0.00002678     -6914.5948583393 -4.41E-06
    23 OT DIIS     0.80E-01   26.1     0.00001604     -6914.5948891278 -3.08E-05
    24 OT DIIS     0.80E-01   26.2     0.00001853     -6914.5948997844 -1.07E-05
    25 OT DIIS     0.80E-01   26.1     0.00001503     -6914.5949112625 -1.15E-05
    26 OT DIIS     0.80E-01   26.1     0.00001145     -6914.5949231839 -1.19E-05
    27 OT DIIS     0.80E-01   26.2     0.00000882     -6914.5949287858 -5.60E-06
    28 OT DIIS     0.80E-01   26.2     0.00000880     -6914.5949382547 -9.47E-06
    29 OT DIIS     0.80E-01   26.4     0.00000768     -6914.5949420954 -3.84E-06
    30 OT DIIS     0.80E-01   27.2     0.00000881     -6914.5949487870 -6.69E-06
    31 OT DIIS     0.80E-01   26.6     0.00000656     -6914.5949540359 -5.25E-06
    32 OT DIIS     0.80E-01   26.2     0.00000743     -6914.5949588996 -4.86E-06
    33 OT DIIS     0.80E-01   26.3     0.00000725     -6914.5949640667 -5.17E-06
    34 OT DIIS     0.80E-01   26.2     0.00000639     -6914.5949688098 -4.74E-06
    35 OT DIIS     0.80E-01   26.2     0.00000635     -6914.5949724698 -3.66E-06
    36 OT DIIS     0.80E-01   26.2     0.00000634     -6914.5949766850 -4.22E-06
    37 OT DIIS     0.80E-01   26.2     0.00000568     -6914.5949768336 -1.49E-07
    38 OT DIIS     0.80E-01   26.0     0.00000576     -6914.5949816505 -4.82E-06
    39 OT DIIS     0.80E-01   26.1     0.00000453     -6914.5949837862 -2.14E-06
    40 OT DIIS     0.80E-01   26.1     0.00000477     -6914.5949861052 -2.32E-06
    41 OT DIIS     0.80E-01   25.9     0.00000460     -6914.5949890959 -2.99E-06
    42 OT DIIS     0.80E-01   26.1     0.00000432     -6914.5949916319 -2.54E-06
    43 OT DIIS     0.80E-01   26.3     0.00000450     -6914.5949950841 -3.45E-06
    44 OT DIIS     0.80E-01   26.0     0.00000481     -6914.5949975141 -2.43E-06
    45 OT DIIS     0.80E-01   26.1     0.00000481     -6914.5949976517 -1.38E-07
    46 OT DIIS     0.80E-01   26.1     0.00000471     -6914.5950014590 -3.81E-06
    47 OT DIIS     0.80E-01   26.1     0.00000396     -6914.5950029337 -1.47E-06
    48 OT DIIS     0.80E-01   26.1     0.00000404     -6914.5950039991 -1.07E-06
    49 OT DIIS     0.80E-01   26.6     0.00000376     -6914.5950058993 -1.90E-06
    50 OT DIIS     0.80E-01   21.0     0.00000336     -6914.5950071423 -1.24E-06
    51 OT DIIS     0.80E-01   28.4     0.00000335     -6914.5950094475 -2.31E-06
    52 OT DIIS     0.80E-01   27.9     0.00000347     -6914.5950109072 -1.46E-06
    53 OT DIIS     0.80E-01   28.2     0.00000363     -6914.5950113549 -4.48E-07
    54 OT DIIS     0.80E-01   28.4     0.00000352     -6914.5950139159 -2.56E-06
    55 OT DIIS     0.80E-01   29.5     0.00000330     -6914.5950153723 -1.46E-06
    56 OT DIIS     0.80E-01   31.1     0.00000343     -6914.5950163660 -9.94E-07
    57 OT DIIS     0.80E-01   32.0     0.00000341     -6914.5950178448 -1.48E-06
    58 OT DIIS     0.80E-01   31.3     0.00000302     -6914.5950185645 -7.20E-07
    59 OT DIIS     0.80E-01   31.8     0.00000295     -6914.5950202893 -1.72E-06
    60 OT DIIS     0.80E-01   30.9     0.00000293     -6914.5950210974 -8.08E-07
    61 OT DIIS     0.80E-01   31.3     0.00000296     -6914.5950214065 -3.09E-07
    62 OT DIIS     0.80E-01   29.1     0.00000275     -6914.5950229326 -1.53E-06
    63 OT DIIS     0.80E-01   27.2     0.00000262     -6914.5950240267 -1.09E-06
    64 OT DIIS     0.80E-01   26.2     0.00000267     -6914.5950249075 -8.81E-07
    65 OT DIIS     0.80E-01   25.5     0.00000279     -6914.5950261283 -1.22E-06
    66 OT DIIS     0.80E-01   24.6     0.00000259     -6914.5950269160 -7.88E-07
    67 OT DIIS     0.80E-01   23.7     0.00000264     -6914.5950283468 -1.43E-06
    68 OT DIIS     0.80E-01   24.4     0.00000268     -6914.5950289429 -5.96E-07
    69 OT DIIS     0.80E-01   25.1     0.00000279     -6914.5950292777 -3.35E-07
    70 OT DIIS     0.80E-01   25.7     0.00000253     -6914.5950302114 -9.34E-07
    71 OT DIIS     0.80E-01   25.9     0.00000232     -6914.5950310038 -7.92E-07
    72 OT DIIS     0.80E-01   26.3     0.00000225     -6914.5950315949 -5.91E-07
    73 OT DIIS     0.80E-01   26.1     0.00000227     -6914.5950324276 -8.33E-07
    74 OT DIIS     0.80E-01   26.4     0.00000214     -6914.5950331013 -6.74E-07
    75 OT DIIS     0.80E-01   26.2     0.00000218     -6914.5950341641 -1.06E-06
    76 OT DIIS     0.80E-01   26.3     0.00000228     -6914.5950348428 -6.79E-07
    77 OT DIIS     0.80E-01   26.4     0.00000249     -6914.5950354761 -6.33E-07
    78 OT DIIS     0.80E-01   26.4     0.00000237     -6914.5950360584 -5.82E-07
    79 OT DIIS     0.80E-01   26.3     0.00000221     -6914.5950367215 -6.63E-07
    80 OT DIIS     0.80E-01   26.4     0.00000212     -6914.5950372007 -4.79E-07
    81 OT DIIS     0.80E-01   26.1     0.00000210     -6914.5950377536 -5.53E-07
    82 OT DIIS     0.80E-01   26.2     0.00000193     -6914.5950382443 -4.91E-07
    83 OT DIIS     0.80E-01   26.3     0.00000187     -6914.5950389326 -6.88E-07
    84 OT DIIS     0.80E-01   26.4     0.00000191     -6914.5950394899 -5.57E-07
    85 OT DIIS     0.80E-01   26.4     0.00000204     -6914.5950402002 -7.10E-07
    86 OT DIIS     0.80E-01   26.2     0.00000203     -6914.5950406183 -4.18E-07
    87 OT DIIS     0.80E-01   27.1     0.00000199     -6914.5950412378 -6.19E-07
    88 OT DIIS     0.80E-01   27.4     0.00000195     -6914.5950418303 -5.93E-07
    89 OT DIIS     0.80E-01   27.6     0.00000202     -6914.5950422668 -4.36E-07
    90 OT DIIS     0.80E-01   28.4     0.00000187     -6914.5950427246 -4.58E-07
    91 OT DIIS     0.80E-01   28.2     0.00000177     -6914.5950431558 -4.31E-07
    92 OT DIIS     0.80E-01   28.0     0.00000175     -6914.5950435340 -3.78E-07
    93 OT DIIS     0.80E-01   28.0     0.00000178     -6914.5950441710 -6.37E-07
    94 OT DIIS     0.80E-01   26.8     0.00000175     -6914.5950444184 -2.47E-07
    95 OT DIIS     0.80E-01   26.7     0.00000172     -6914.5950448951 -4.77E-07
    96 OT DIIS     0.80E-01   26.9     0.00000169     -6914.5950455003 -6.05E-07
    97 OT DIIS     0.80E-01   27.5     0.00000180     -6914.5950459313 -4.31E-07
    98 OT DIIS     0.80E-01   27.5     0.00000174     -6914.5950464952 -5.64E-07
    99 OT DIIS     0.80E-01   27.1     0.00000170     -6914.5950468070 -3.12E-07
   100 OT DIIS     0.80E-01   27.0     0.00000169     -6914.5950471011 -2.94E-07

  Leaving inner SCF loop after reaching   100 steps.


  Electronic density on regular grids:      -2432.0000000554       -0.0000000554
  Core density on regular grids:             2431.9999999988       -0.0000000012
  Total charge density on r-space grids:       -0.0000000565
  Total charge density g-space grids:          -0.0000000565

  Overlap energy of the core charge distribution:               0.00185037093853
  Self energy of the core charge distribution:             -16017.19408509233290
  Core Hamiltonian energy:                                   4277.68859249628167
  Hartree energy:                                            6149.01557714560477
  Exchange-correlation energy:                              -1322.34499472108200
  Dispersion energy:                                           -1.76198730052217

  Total energy:                                             -6914.59504710111378

  outer SCF iter =    1 RMS gradient =   0.17E-05 energy =      -6914.5950471011

  ----------------------------------- OT ---------------------------------------
  Minimizer      : DIIS                : direct inversion
                                         in the iterative subspace
                                         using   7 DIIS vectors
                                         safer DIIS on
  Preconditioner : FULL_SINGLE_INVERSE : inversion of 
                                         H + eS - 2*(Sc)(c^T*H*c+const)(Sc)^T
  Precond_solver : DEFAULT
  stepsize       :    0.08000000                  energy_gap     :    0.08000000
  eps_taylor     :   0.10000E-15                  max_taylor     :             4
  ----------------------------------- OT ---------------------------------------

  Step     Update method      Time    Convergence         Total energy    Change
  ------------------------------------------------------------------------------
     1 OT DIIS     0.80E-01   58.6     0.00000166     -6914.5950477569 -6.56E-07
     2 OT DIIS     0.80E-01   25.9     0.00000340     -6914.5950482919 -5.35E-07
     3 OT DIIS     0.80E-01   26.3     0.00000143     -6914.5950489775 -6.86E-07
     4 OT DIIS     0.80E-01   26.5     0.00000149     -6914.5950494812 -5.04E-07
     5 OT DIIS     0.80E-01   26.8     0.00000158     -6914.5950509385 -1.46E-06
     6 OT DIIS     0.80E-01   27.1     0.00000211     -6914.5950620431 -1.11E-05
     7 OT DIIS     0.80E-01   27.5     0.00000125     -6914.5950694087 -7.37E-06
     8 OT SD       0.80E-01   27.6     0.00000095     -6914.5950701211 -7.12E-07

  *** SCF run converged in     8 steps ***


  Electronic density on regular grids:      -2432.0000000554       -0.0000000554
  Core density on regular grids:             2431.9999999988       -0.0000000012
  Total charge density on r-space grids:       -0.0000000565
  Total charge density g-space grids:          -0.0000000565

  Overlap energy of the core charge distribution:               0.00185037093853
  Self energy of the core charge distribution:             -16017.19408509233290
  Core Hamiltonian energy:                                   4277.68610163514404
  Hartree energy:                                            6149.01703055953749
  Exchange-correlation energy:                              -1322.34398029388194
  Dispersion energy:                                           -1.76198730052217

  Total energy:                                             -6914.59507012111862

  outer SCF iter =    2 RMS gradient =   0.95E-06 energy =      -6914.5950701211
  outer SCF loop converged in   2 iterations or  108 steps


 ENERGY| Total FORCE_EVAL ( QS ) energy [hartree]          -6914.595070401821431

 OPT| **************************************************************************
 OPT| Step number                                                              1
 OPT| Optimization method                                                  LBFGS
 OPT| Total energy [hartree]                                    -6914.5950704018
 OPT| Effective energy change [hartree]                           -12.9321845607
 OPT| Decrease in energy                                                     YES
 OPT| Used time [s]                                                     8979.213
 OPT|
 OPT| Maximum step size                                             0.4724315332
 OPT| Convergence limit for maximum step size                       0.0030000000
 OPT| Maximum step size is converged                                          NO
 OPT|
 OPT| RMS step size                                                 0.0622725306
 OPT| Convergence limit for RMS step size                           0.0015000000
 OPT| RMS step size is converged                                              NO
 OPT|
 OPT| Maximum gradient                                              0.7190421179
 OPT| Convergence limit for maximum gradient                        0.0010000000
 OPT| Maximum gradient is converged                                           NO
 OPT|
 OPT| RMS gradient                                                  0.0989249729
 OPT| Convergence limit for RMS gradient                            0.0005000000
 OPT| RMS gradient is converged                                               NO
 OPT| **************************************************************************
 OPT| Estimated peak process memory after this step [MiB]                  16133

 --------------------------
 OPTIMIZATION STEP:      2
 --------------------------

 Number of electrons:                                                       2432
 Number of occupied orbitals:                                               1216
 Number of molecular orbitals:                                              1216

 Number of orbital functions:                                               4983
 Number of independent orbital functions:                                   4983

 Extrapolation method: ASPC


 SCF WAVEFUNCTION OPTIMIZATION

  ----------------------------------- OT ---------------------------------------
  Minimizer      : DIIS                : direct inversion
                                         in the iterative subspace
                                         using   7 DIIS vectors
                                         safer DIIS on
  Preconditioner : FULL_SINGLE_INVERSE : inversion of 
                                         H + eS - 2*(Sc)(c^T*H*c+const)(Sc)^T
  Precond_solver : DEFAULT
  stepsize       :    0.08000000                  energy_gap     :    0.08000000
  eps_taylor     :   0.10000E-15                  max_taylor     :             4
  ----------------------------------- OT ---------------------------------------

  Step     Update method      Time    Convergence         Total energy    Change
  ------------------------------------------------------------------------------
     1 OT DIIS     0.80E-01   32.2     0.00335542     -6910.4483651154 -6.91E+03
     2 OT DIIS     0.80E-01   30.1     0.00203035     -6913.6592826174 -3.21E+00
     3 OT DIIS     0.80E-01   31.0     0.00229010     -6914.3050079787 -6.46E-01
     4 OT DIIS     0.80E-01   33.2     0.00204825     -6914.6894769561 -3.84E-01
     5 OT DIIS     0.80E-01   31.8     0.00111603     -6914.9919942279 -3.03E-01
     6 OT DIIS     0.80E-01   29.6     0.00039941     -6915.0990297932 -1.07E-01
     7 OT DIIS     0.80E-01   28.1     0.00023206     -6915.1187097399 -1.97E-02
     8 OT DIIS     0.80E-01   28.1     0.00021853     -6915.1230319246 -4.32E-03
     9 OT DIIS     0.80E-01   27.7     0.00012480     -6915.1255775352 -2.55E-03
    10 OT DIIS     0.80E-01   26.2     0.00005929     -6915.1272221060 -1.64E-03
    11 OT DIIS     0.80E-01   25.9     0.00005943     -6915.1276648799 -4.43E-04
    12 OT DIIS     0.80E-01   25.8     0.00003908     -6915.1279322390 -2.67E-04
    13 OT DIIS     0.80E-01   25.7     0.00002536     -6915.1280725305 -1.40E-04
    14 OT DIIS     0.80E-01   26.1     0.00002346     -6915.1281325961 -6.01E-05
    15 OT DIIS     0.80E-01   26.8     0.00001566     -6915.1281865383 -5.39E-05
    16 OT DIIS     0.80E-01   27.0     0.00001149     -6915.1282316016 -4.51E-05
    17 OT DIIS     0.80E-01   26.1     0.00000986     -6915.1282720175 -4.04E-05
    18 OT DIIS     0.80E-01   26.4     0.00000876     -6915.1283014712 -2.95E-05
    19 OT DIIS     0.80E-01   26.8     0.00000764     -6915.1283286049 -2.71E-05
    20 OT DIIS     0.80E-01   26.7     0.00000715     -6915.1283542346 -2.56E-05
    21 OT DIIS     0.80E-01   26.8     0.00000672     -6915.1283805699 -2.63E-05
    22 OT DIIS     0.80E-01   26.6     0.00000629     -6915.1284093576 -2.88E-05
    23 OT DIIS     0.80E-01   27.4     0.00000580     -6915.1284347187 -2.54E-05
    24 OT DIIS     0.80E-01   27.8     0.00000520     -6915.1284593002 -2.46E-05
    25 OT DIIS     0.80E-01   27.9     0.00000473     -6915.1284801420 -2.08E-05
    26 OT DIIS     0.80E-01   27.9     0.00000445     -6915.1285016613 -2.15E-05
    27 OT DIIS     0.80E-01   27.3     0.00000420     -6915.1285189219 -1.73E-05
    28 OT DIIS     0.80E-01   26.7     0.00000391     -6915.1285318554 -1.29E-05
    29 OT DIIS     0.80E-01   26.5     0.00000336     -6915.1285412082 -9.35E-06
    30 OT DIIS     0.80E-01   27.1     0.00000298     -6915.1285485558 -7.35E-06
    31 OT DIIS     0.80E-01   27.0     0.00000276     -6915.1285535274 -4.97E-06
    32 OT DIIS     0.80E-01   26.8     0.00000249     -6915.1285573875 -3.86E-06
    33 OT DIIS     0.80E-01   26.5     0.00000226     -6915.1285603396 -2.95E-06
    34 OT DIIS     0.80E-01   27.6     0.00000203     -6915.1285625999 -2.26E-06
    35 OT DIIS     0.80E-01   27.6     0.00000188     -6915.1285643734 -1.77E-06
    36 OT DIIS     0.80E-01   27.9     0.00000180     -6915.1285657312 -1.36E-06
    37 OT DIIS     0.80E-01   27.8     0.00000164     -6915.1285670095 -1.28E-06
    38 OT DIIS     0.80E-01   27.3     0.00000158     -6915.1285682534 -1.24E-06
    39 OT DIIS     0.80E-01   26.5     0.00000152     -6915.1285694701 -1.22E-06
    40 OT DIIS     0.80E-01   26.7     0.00000142     -6915.1285705694 -1.10E-06
    41 OT DIIS     0.80E-01   27.2     0.00000133     -6915.1285717514 -1.18E-06
    42 OT DIIS     0.80E-01   21.8     0.00000129     -6915.1285728295 -1.08E-06
    43 OT DIIS     0.80E-01   27.7     0.00000123     -6915.1285740158 -1.19E-06
    44 OT DIIS     0.80E-01   27.4     0.00000122     -6915.1285751091 -1.09E-06
    45 OT DIIS     0.80E-01   27.4     0.00000114     -6915.1285762625 -1.15E-06
    46 OT DIIS     0.80E-01   28.4     0.00000110     -6915.1285773788 -1.12E-06
    47 OT DIIS     0.80E-01   28.4     0.00000104     -6915.1285784605 -1.08E-06
    48 OT DIIS     0.80E-01   29.1     0.00000099     -6915.1285794124 -9.52E-07

  *** SCF run converged in    48 steps ***


  Electronic density on regular grids:      -2432.0000000611       -0.0000000611
  Core density on regular grids:             2431.9999999988       -0.0000000012
  Total charge density on r-space grids:       -0.0000000623
  Total charge density g-space grids:          -0.0000000623

  Overlap energy of the core charge distribution:               0.00063756431549
  Self energy of the core charge distribution:             -16017.19408509233290
  Core Hamiltonian energy:                                   4276.85743667381757
  Hartree energy:                                            6149.13908288849962
  Exchange-correlation energy:                              -1322.16956043466439
  Dispersion energy:                                           -1.76209101205701

  Total energy:                                             -6915.12857941242146

  outer SCF iter =    1 RMS gradient =   0.99E-06 energy =      -6915.1285794124
  outer SCF loop converged in   1 iterations or   48 steps


 ENERGY| Total FORCE_EVAL ( QS ) energy [hartree]          -6915.128580420495382

 OPT| **************************************************************************
 OPT| Step number                                                              2
 OPT| Optimization method                                                  LBFGS
 OPT| Total energy [hartree]                                    -6915.1285804205
 OPT| Effective energy change [hartree]                            -0.5335100187
 OPT| Decrease in energy                                                     YES
 OPT| Used time [s]                                                     1369.318
 OPT|
 OPT| Maximum step size                                             0.0471741144
 OPT| Convergence limit for maximum step size                       0.0030000000
 OPT| Maximum step size is converged                                          NO
 OPT|
 OPT| RMS step size                                                 0.0057525225
 OPT| Convergence limit for RMS step size                           0.0015000000
 OPT| RMS step size is converged                                              NO
 OPT|
 OPT| Maximum gradient                                              0.4864410798
 OPT| Convergence limit for maximum gradient                        0.0010000000
 OPT| Maximum gradient is converged                                           NO
 OPT|
 OPT| RMS gradient                                                  0.0661228624
 OPT| Convergence limit for RMS gradient                            0.0005000000
 OPT| RMS gradient is converged                                               NO
 OPT| **************************************************************************
 OPT| Estimated peak process memory after this step [MiB]                  16133

 --------------------------
 OPTIMIZATION STEP:      3
 --------------------------

 Number of electrons:                                                       2432
 Number of occupied orbitals:                                               1216
 Number of molecular orbitals:                                              1216

 Number of orbital functions:                                               4983
 Number of independent orbital functions:                                   4983

 Extrapolation method: ASPC


 SCF WAVEFUNCTION OPTIMIZATION

  ----------------------------------- OT ---------------------------------------
  Minimizer      : DIIS                : direct inversion
                                         in the iterative subspace
                                         using   7 DIIS vectors
                                         safer DIIS on
  Preconditioner : FULL_SINGLE_INVERSE : inversion of 
                                         H + eS - 2*(Sc)(c^T*H*c+const)(Sc)^T
  Precond_solver : DEFAULT
  stepsize       :    0.08000000                  energy_gap     :    0.08000000
  eps_taylor     :   0.10000E-15                  max_taylor     :             4
  ----------------------------------- OT ---------------------------------------

  Step     Update method      Time    Convergence         Total energy    Change
  ------------------------------------------------------------------------------
     1 OT DIIS     0.80E-01   22.5     0.00179574     -6914.3948410274 -6.91E+03
     2 OT DIIS     0.80E-01   31.3     0.00108492     -6915.3715982568 -9.77E-01
     3 OT DIIS     0.80E-01   32.8     0.00117090     -6915.5771646959 -2.06E-01
     4 OT DIIS     0.80E-01   32.2     0.00100607     -6915.7043985203 -1.27E-01
     5 OT DIIS     0.80E-01   31.2     0.00053544     -6915.7874788891 -8.31E-02
     6 OT DIIS     0.80E-01   31.4     0.00027889     -6915.8077608018 -2.03E-02
     7 OT DIIS     0.80E-01   31.3     0.00028373     -6915.8123725360 -4.61E-03
     8 OT DIIS     0.80E-01   30.1     0.00014599     -6915.8155898188 -3.22E-03
     9 OT DIIS     0.80E-01   30.3     0.00008894     -6915.8167772360 -1.19E-03
    10 OT DIIS     0.80E-01   29.5     0.00006892     -6915.8173271254 -5.50E-04
    11 OT DIIS     0.80E-01   28.2     0.00006180     -6915.8175381892 -2.11E-04
    12 OT DIIS     0.80E-01   30.0     0.00003034     -6915.8177380725 -2.00E-04
    13 OT DIIS     0.80E-01   29.6     0.00003182     -6915.8177845434 -4.65E-05
    14 OT DIIS     0.80E-01   29.6     0.00001986     -6915.8178380274 -5.35E-05
    15 OT DIIS     0.80E-01   28.9     0.00001827     -6915.8178609652 -2.29E-05
    16 OT DIIS     0.80E-01   29.9     0.00001770     -6915.8178770077 -1.60E-05
    17 OT DIIS     0.80E-01   30.4     0.00001063     -6915.8178954110 -1.84E-05
    18 OT DIIS     0.80E-01   30.3     0.00001071     -6915.8179059139 -1.05E-05
    19 OT DIIS     0.80E-01   30.6     0.00000999     -6915.8179162012 -1.03E-05
    20 OT DIIS     0.80E-01   29.4     0.00000807     -6915.8179223186 -6.12E-06
    21 OT DIIS     0.80E-01   27.9     0.00000773     -6915.8179333419 -1.10E-05
    22 OT DIIS     0.80E-01   28.1     0.00000727     -6915.8179378770 -4.54E-06
    23 OT DIIS     0.80E-01   28.2     0.00000689     -6915.8179454040 -7.53E-06
    24 OT DIIS     0.80E-01   27.9     0.00000785     -6915.8179497573 -4.35E-06
    25 OT DIIS     0.80E-01   28.1     0.00000597     -6915.8179546874 -4.93E-06
    26 OT DIIS     0.80E-01   29.1     0.00000605     -6915.8179591956 -4.51E-06
    27 OT DIIS     0.80E-01   30.8     0.00000576     -6915.8179630167 -3.82E-06
    28 OT DIIS     0.80E-01   32.1     0.00000532     -6915.8179650269 -2.01E-06
    29 OT DIIS     0.80E-01   33.3     0.00000479     -6915.8179685098 -3.48E-06
    30 OT DIIS     0.80E-01   32.0     0.00000452     -6915.8179699485 -1.44E-06
    31 OT DIIS     0.80E-01   31.3     0.00000404     -6915.8179725020 -2.55E-06
    32 OT DIIS     0.80E-01   28.6     0.00000440     -6915.8179738980 -1.40E-06
    33 OT DIIS     0.80E-01   28.1     0.00000363     -6915.8179754256 -1.53E-06
    34 OT DIIS     0.80E-01   27.2     0.00000349     -6915.8179769699 -1.54E-06
    35 OT DIIS     0.80E-01   26.1     0.00000335     -6915.8179786617 -1.69E-06
    36 OT DIIS     0.80E-01   25.4     0.00000340     -6915.8179797500 -1.09E-06
    37 OT DIIS     0.80E-01   24.9     0.00000322     -6915.8179810058 -1.26E-06
    38 OT DIIS     0.80E-01   26.2     0.00000314     -6915.8179819550 -9.49E-07
    39 OT DIIS     0.80E-01   27.2     0.00000284     -6915.8179832005 -1.25E-06
    40 OT DIIS     0.80E-01   26.9     0.00000316     -6915.8179839247 -7.24E-07
    41 OT DIIS     0.80E-01   26.6     0.00000271     -6915.8179846327 -7.08E-07
    42 OT DIIS     0.80E-01   26.1     0.00000250     -6915.8179852245 -5.92E-07
    43 OT DIIS     0.80E-01   26.6     0.00000230     -6915.8179860233 -7.99E-07
    44 OT DIIS     0.80E-01   27.4     0.00000229     -6915.8179865963 -5.73E-07
    45 OT DIIS     0.80E-01   27.1     0.00000216     -6915.8179869976 -4.01E-07
    46 OT DIIS     0.80E-01   26.4     0.00000207     -6915.8179875171 -5.19E-07
    47 OT DIIS     0.80E-01   26.7     0.00000189     -6915.8179880761 -5.59E-07
    48 OT DIIS     0.80E-01   27.2     0.00000209     -6915.8179885196 -4.44E-07
    49 OT DIIS     0.80E-01   27.7     0.00000194     -6915.8179889210 -4.01E-07
    50 OT DIIS     0.80E-01   27.5     0.00000185     -6915.8179892350 -3.14E-07
    51 OT DIIS     0.80E-01   27.8     0.00000171     -6915.8179896853 -4.50E-07
    52 OT DIIS     0.80E-01   27.5     0.00000173     -6915.8179900716 -3.86E-07
    53 OT DIIS     0.80E-01   27.1     0.00000166     -6915.8179902366 -1.65E-07
    54 OT DIIS     0.80E-01   27.0     0.00000159     -6915.8179905324 -2.96E-07
    55 OT DIIS     0.80E-01   28.0     0.00000141     -6915.8179907865 -2.54E-07
    56 OT DIIS     0.80E-01   27.1     0.00000146     -6915.8179910284 -2.42E-07
    57 OT DIIS     0.80E-01   26.7     0.00000138     -6915.8179912350 -2.07E-07
    58 OT DIIS     0.80E-01   26.7     0.00000130     -6915.8179914046 -1.70E-07
    59 OT DIIS     0.80E-01   27.4     0.00000121     -6915.8179916255 -2.21E-07
    60 OT DIIS     0.80E-01   27.8     0.00000122     -6915.8179918772 -2.52E-07
    61 OT DIIS     0.80E-01   27.3     0.00000122     -6915.8179919992 -1.22E-07
    62 OT DIIS     0.80E-01   27.6     0.00000124     -6915.8179921901 -1.91E-07
    63 OT DIIS     0.80E-01   27.4     0.00000110     -6915.8179923367 -1.47E-07
    64 OT DIIS     0.80E-01   26.9     0.00000116     -6915.8179924935 -1.57E-07
    65 OT DIIS     0.80E-01   26.7     0.00000111     -6915.8179926247 -1.31E-07
    66 OT DIIS     0.80E-01   27.7     0.00000103     -6915.8179927263 -1.02E-07
    67 OT DIIS     0.80E-01   27.1     0.00000095     -6915.8179928279 -1.02E-07

  *** SCF run converged in    67 steps ***


  Electronic density on regular grids:      -2432.0000000601       -0.0000000601
  Core density on regular grids:             2431.9999999988       -0.0000000012
  Total charge density on r-space grids:       -0.0000000612
  Total charge density g-space grids:          -0.0000000612

  Overlap energy of the core charge distribution:               0.00007885318785
  Self energy of the core charge distribution:             -16017.19408509233290
  Core Hamiltonian energy:                                   4275.12016178990871
  Hartree energy:                                            6149.82841984007700
  Exchange-correlation energy:                              -1321.80989143470265
  Dispersion energy:                                           -1.76267678400231

  Total energy:                                             -6915.81799282786596

  outer SCF iter =    1 RMS gradient =   0.95E-06 energy =      -6915.8179928279
  outer SCF loop converged in   1 iterations or   67 steps


 ENERGY| Total FORCE_EVAL ( QS ) energy [hartree]          -6915.817992978233633

 OPT| **************************************************************************
 OPT| Step number                                                              3
 OPT| Optimization method                                                  LBFGS
 OPT| Total energy [hartree]                                    -6915.8179929782
 OPT| Effective energy change [hartree]                            -0.6894125577
 OPT| Decrease in energy                                                     YES
 OPT| Used time [s]                                                     1951.993
 OPT|
 OPT| Maximum step size                                             0.1052206795
 OPT| Convergence limit for maximum step size                       0.0030000000
 OPT| Maximum step size is converged                                          NO
 OPT|
 OPT| RMS step size                                                 0.0137922956
 OPT| Convergence limit for RMS step size                           0.0015000000
 OPT| RMS step size is converged                                              NO
 OPT|
 OPT| Maximum gradient                                              0.1955065098
 OPT| Convergence limit for maximum gradient                        0.0010000000
 OPT| Maximum gradient is converged                                           NO
 OPT|
 OPT| RMS gradient                                                  0.0300470443
 OPT| Convergence limit for RMS gradient                            0.0005000000
 OPT| RMS gradient is converged                                               NO
 OPT| **************************************************************************
 OPT| Estimated peak process memory after this step [MiB]                  16133

 --------------------------
 OPTIMIZATION STEP:      4
 --------------------------

 Number of electrons:                                                       2432
 Number of occupied orbitals:                                               1216
 Number of molecular orbitals:                                              1216

 Number of orbital functions:                                               4983
 Number of independent orbital functions:                                   4983

 Extrapolation method: ASPC


 SCF WAVEFUNCTION OPTIMIZATION

  ----------------------------------- OT ---------------------------------------
  Minimizer      : DIIS                : direct inversion
                                         in the iterative subspace
                                         using   7 DIIS vectors
                                         safer DIIS on
  Preconditioner : FULL_SINGLE_INVERSE : inversion of 
                                         H + eS - 2*(Sc)(c^T*H*c+const)(Sc)^T
  Precond_solver : DEFAULT
  stepsize       :    0.08000000                  energy_gap     :    0.08000000
  eps_taylor     :   0.10000E-15                  max_taylor     :             4
  ----------------------------------- OT ---------------------------------------

  Step     Update method      Time    Convergence         Total energy    Change
  ------------------------------------------------------------------------------
     1 OT DIIS     0.80E-01   31.6     0.00054064     -6916.0978340664 -6.92E+03
     2 OT DIIS     0.80E-01   31.2     0.00037479     -6916.1713903688 -7.36E-02
     3 OT DIIS     0.80E-01   31.2     0.00029016     -6916.1908081034 -1.94E-02
     4 OT DIIS     0.80E-01   27.1     0.00025677     -6916.2024179142 -1.16E-02
     5 OT DIIS     0.80E-01   25.2     0.00027686     -6916.2064839766 -4.07E-03
     6 OT DIIS     0.80E-01   24.0     0.00016230     -6916.2095690479 -3.09E-03
     7 OT DIIS     0.80E-01   25.3     0.00005988     -6916.2109533314 -1.38E-03
     8 OT DIIS     0.80E-01   26.5     0.00006354     -6916.2111003852 -1.47E-04
     9 OT DIIS     0.80E-01   26.0     0.00002779     -6916.2112752646 -1.75E-04
    10 OT DIIS     0.80E-01   26.1     0.00001978     -6916.2113168117 -4.15E-05
    11 OT DIIS     0.80E-01   26.3     0.00001336     -6916.2113455126 -2.87E-05
    12 OT DIIS     0.80E-01   28.0     0.00001454     -6916.2113516120 -6.10E-06
    13 OT DIIS     0.80E-01   28.4     0.00000968     -6916.2113613782 -9.77E-06
    14 OT DIIS     0.80E-01   28.0     0.00001052     -6916.2113631056 -1.73E-06
    15 OT DIIS     0.80E-01   27.8     0.00000701     -6916.2113664161 -3.31E-06
    16 OT DIIS     0.80E-01   26.1     0.00000525     -6916.2113688771 -2.46E-06
    17 OT DIIS     0.80E-01   24.5     0.00000456     -6916.2113697535 -8.76E-07
    18 OT DIIS     0.80E-01   23.7     0.00000294     -6916.2113711740 -1.42E-06
    19 OT DIIS     0.80E-01   25.2     0.00000241     -6916.2113718520 -6.78E-07
    20 OT DIIS     0.80E-01   27.5     0.00000279     -6916.2113724719 -6.20E-07
    21 OT DIIS     0.80E-01   29.4     0.00000207     -6916.2113730949 -6.23E-07
    22 OT DIIS     0.80E-01   31.0     0.00000238     -6916.2113735562 -4.61E-07
    23 OT DIIS     0.80E-01   30.5     0.00000226     -6916.2113740715 -5.15E-07
    24 OT DIIS     0.80E-01   28.0     0.00000175     -6916.2113746042 -5.33E-07
    25 OT DIIS     0.80E-01   24.7     0.00000210     -6916.2113749891 -3.85E-07
    26 OT DIIS     0.80E-01   27.0     0.00000153     -6916.2113755071 -5.18E-07
    27 OT DIIS     0.80E-01   27.3     0.00000152     -6916.2113758866 -3.79E-07
    28 OT DIIS     0.80E-01   26.7     0.00000165     -6916.2113762303 -3.44E-07
    29 OT DIIS     0.80E-01   26.5     0.00000142     -6916.2113764210 -1.91E-07
    30 OT DIIS     0.80E-01   27.4     0.00000142     -6916.2113766973 -2.76E-07
    31 OT DIIS     0.80E-01   26.5     0.00000138     -6916.2113769501 -2.53E-07
    32 OT DIIS     0.80E-01   26.4     0.00000114     -6916.2113771314 -1.81E-07
    33 OT DIIS     0.80E-01   26.3     0.00000124     -6916.2113774158 -2.84E-07
    34 OT DIIS     0.80E-01   27.5     0.00000105     -6916.2113776137 -1.98E-07
    35 OT DIIS     0.80E-01   28.2     0.00000108     -6916.2113779369 -3.23E-07
    36 OT DIIS     0.80E-01   28.2     0.00000112     -6916.2113781815 -2.45E-07
    37 OT DIIS     0.80E-01   28.2     0.00000112     -6916.2113783467 -1.65E-07
    38 OT DIIS     0.80E-01   27.3     0.00000111     -6916.2113786072 -2.61E-07
    39 OT DIIS     0.80E-01   26.9     0.00000112     -6916.2113788204 -2.13E-07
    40 OT DIIS     0.80E-01   26.6     0.00000099     -6916.2113789264 -1.06E-07

  *** SCF run converged in    40 steps ***


  Electronic density on regular grids:      -2432.0000000404       -0.0000000404
  Core density on regular grids:             2431.9999999988       -0.0000000012
  Total charge density on r-space grids:       -0.0000000415
  Total charge density g-space grids:          -0.0000000415

  Overlap energy of the core charge distribution:               0.00002953524584
  Self energy of the core charge distribution:             -16017.19408509233290
  Core Hamiltonian energy:                                   4273.19854378605669
  Hartree energy:                                            6150.98264213626044
  Exchange-correlation energy:                              -1321.43525296884354
  Dispersion energy:                                           -1.76325632274363

  Total energy:                                             -6916.21137892635670

  outer SCF iter =    1 RMS gradient =   0.99E-06 energy =      -6916.2113789264
  outer SCF loop converged in   1 iterations or   40 steps


 ENERGY| Total FORCE_EVAL ( QS ) energy [hartree]          -6916.211379201192358

 OPT| **************************************************************************
 OPT| Step number                                                              4
 OPT| Optimization method                                                  LBFGS
 OPT| Total energy [hartree]                                    -6916.2113792012
 OPT| Effective energy change [hartree]                            -0.3933862230
 OPT| Decrease in energy                                                     YES
 OPT| Used time [s]                                                     1142.553
 OPT|
 OPT| Maximum step size                                             0.0989423884
 OPT| Convergence limit for maximum step size                       0.0030000000
 OPT| Maximum step size is converged                                          NO
 OPT|
 OPT| RMS step size                                                 0.0146354004
 OPT| Convergence limit for RMS step size                           0.0015000000
 OPT| RMS step size is converged                                              NO
 OPT|
 OPT| Maximum gradient                                              0.1797924004
 OPT| Convergence limit for maximum gradient                        0.0010000000
 OPT| Maximum gradient is converged                                           NO
 OPT|
 OPT| RMS gradient                                                  0.0280572576
 OPT| Convergence limit for RMS gradient                            0.0005000000
 OPT| RMS gradient is converged                                               NO
 OPT| **************************************************************************
 OPT| Estimated peak process memory after this step [MiB]                  16133

 --------------------------
 OPTIMIZATION STEP:      5
 --------------------------

 Number of electrons:                                                       2432
 Number of occupied orbitals:                                               1216
 Number of molecular orbitals:                                              1216

 Number of orbital functions:                                               4983
 Number of independent orbital functions:                                   4983

 Extrapolation method: ASPC


 SCF WAVEFUNCTION OPTIMIZATION

  ----------------------------------- OT ---------------------------------------
  Minimizer      : DIIS                : direct inversion
                                         in the iterative subspace
                                         using   7 DIIS vectors
                                         safer DIIS on
  Preconditioner : FULL_SINGLE_INVERSE : inversion of 
                                         H + eS - 2*(Sc)(c^T*H*c+const)(Sc)^T
[...]

  outer SCF iter =    8 RMS gradient =   0.19E-04 energy =      -6920.3329650768

  ----------------------------------- OT ---------------------------------------
  Minimizer      : DIIS                : direct inversion
                                         in the iterative subspace
                                         using   7 DIIS vectors
                                         safer DIIS on
  Preconditioner : FULL_SINGLE_INVERSE : inversion of 
                                         H + eS - 2*(Sc)(c^T*H*c+const)(Sc)^T
  Precond_solver : DEFAULT
  stepsize       :    0.08000000                  energy_gap     :    0.08000000
  eps_taylor     :   0.10000E-15                  max_taylor     :             4
  ----------------------------------- OT ---------------------------------------

  Step     Update method      Time    Convergence         Total energy    Change
  ------------------------------------------------------------------------------
     1 OT DIIS     0.80E-01   27.1     0.00000223     -6920.3329682346 -3.16E-06
     2 OT DIIS     0.80E-01   11.5     0.00000239     -6920.3329705564 -2.32E-06
     3 OT DIIS     0.80E-01   11.3     0.00000222     -6920.3329711409 -5.84E-07
     4 OT DIIS     0.80E-01   11.3     0.00000221     -6920.3329719816 -8.41E-07
     5 OT DIIS     0.80E-01   11.5     0.00000221     -6920.3329740894 -2.11E-06
     6 OT DIIS     0.80E-01   11.5     0.00000221     -6920.3329823529 -8.26E-06
     7 OT DIIS     0.80E-01   11.5     0.00000221     -6920.3329880087 -5.66E-06
     8 OT SD       0.80E-01   11.6     0.00000221     -6920.3329892792 -1.27E-06
     9 OT SD       0.80E-01   11.5     0.00000222     -6920.3329916314 -2.35E-06
    10 OT SD       0.80E-01   11.5     0.00000227     -6920.3329939745 -2.34E-06
    11 OT SD       0.80E-01   11.5     0.00000271     -6920.3329962170 -2.24E-06
    12 OT SD       0.80E-01   11.6     0.00000590     -6920.3329972000 -9.83E-07
    13 OT DIIS     0.80E-01   11.6     0.00002235     -6920.3329782191  1.90E-05
    14 OT SD       0.80E-01   11.5     0.00000224     -6920.3329702133  8.01E-06
    15 OT DIIS     0.80E-01   11.4     0.00000243     -6920.3329724957 -2.28E-06
    16 OT DIIS     0.80E-01   11.4     0.00000221     -6920.3329733471 -8.51E-07
    17 OT SD       0.80E-01   11.3     0.00000222     -6920.3329774252 -4.08E-06
    18 OT SD       0.80E-01   11.4     0.00000268     -6920.3329796645 -2.24E-06
    19 OT DIIS     0.80E-01   11.5     0.00000760     -6920.3329798720 -2.08E-07
    20 OT DIIS     0.80E-01   11.4     0.00000220     -6920.3329803619 -4.90E-07
    21 OT SD       0.80E-01   11.4     0.00000220     -6920.3329818705 -1.51E-06
    22 OT SD       0.80E-01   11.5     0.00000220     -6920.3329842059 -2.34E-06
    23 OT SD       0.80E-01   11.5     0.00000227     -6920.3329865303 -2.32E-06
    24 OT SD       0.80E-01   11.5     0.00000361     -6920.3329885511 -2.02E-06
    25 OT SD       0.80E-01   11.5     0.00001455     -6920.3329829163  5.63E-06
    26 OT DIIS     0.80E-01   11.5     0.00007268     -6920.3327824870  2.00E-04
    27 OT DIIS     0.80E-01   11.3     0.00000225     -6920.3329729936 -1.91E-04
    28 OT SD       0.80E-01   11.4     0.00000228     -6920.3329748256 -1.83E-06
    29 OT DIIS     0.80E-01   11.5     0.00000316     -6920.3329769215 -2.10E-06
    30 OT SD       0.80E-01   11.6     0.00000220     -6920.3329829506 -6.03E-06
    31 OT SD       0.80E-01   11.5     0.00000233     -6920.3329852421 -2.29E-06
    32 OT SD       0.80E-01   11.4     0.00000410     -6920.3329870609 -1.82E-06
    33 OT DIIS     0.80E-01   11.5     0.00001587     -6920.3329792189  7.84E-06
    34 OT SD       0.80E-01   11.5     0.00000219     -6920.3329758824  3.34E-06
    35 OT SD       0.80E-01   11.4     0.00000234     -6920.3329781676 -2.29E-06
    36 OT SD       0.80E-01   11.4     0.00000448     -6920.3329798693 -1.70E-06
    37 OT DIIS     0.80E-01   11.5     0.00001902     -6920.3329680518  1.18E-05
    38 OT DIIS     0.80E-01   11.5     0.00000222     -6920.3329616021  6.45E-06
    39 OT DIIS     0.80E-01   11.5     0.00000219     -6920.3329749609 -1.34E-05
    40 OT DIIS     0.80E-01   11.4     0.00000219     -6920.3329774219 -2.46E-06
    41 OT SD       0.80E-01   11.5     0.00000219     -6920.3329777091 -2.87E-07
    42 OT SD       0.80E-01   11.4     0.00000230     -6920.3329800018 -2.29E-06
    43 OT SD       0.80E-01   11.4     0.00000386     -6920.3329818974 -1.90E-06
    44 OT DIIS     0.80E-01   11.5     0.00001470     -6920.3329755057  6.39E-06
    45 OT SD       0.80E-01   11.3     0.00000219     -6920.3329717991  3.71E-06
    46 OT SD       0.80E-01   11.4     0.00000226     -6920.3329740935 -2.29E-06
    47 OT SD       0.80E-01   11.5     0.00000347     -6920.3329761107 -2.02E-06
    48 OT DIIS     0.80E-01   11.4     0.00001338     -6920.3329715900  4.52E-06
    49 OT DIIS     0.80E-01   11.4     0.00000219     -6920.3329673302  4.26E-06
    50 OT DIIS     0.80E-01   11.5     0.00000220     -6920.3329761026 -8.77E-06
    51 OT DIIS     0.80E-01   11.3     0.00000219     -6920.3329809897 -4.89E-06
    52 OT SD       0.80E-01   11.6     0.00000219     -6920.3329866468 -5.66E-06
    53 OT DIIS     0.80E-01   11.6     0.00000240     -6920.3329888865 -2.24E-06
    54 OT DIIS     0.80E-01   11.4     0.00000218     -6920.3329889691 -8.26E-08
    55 OT DIIS     0.80E-01   11.6     0.00000218     -6920.3329911188 -2.15E-06
    56 OT SD       0.80E-01   11.5     0.00000217     -6920.3329927415 -1.62E-06
    57 OT SD       0.80E-01   11.5     0.00000218     -6920.3329950305 -2.29E-06
    58 OT SD       0.80E-01   11.6     0.00000228     -6920.3329973072 -2.28E-06
    59 OT SD       0.80E-01   11.6     0.00000377     -6920.3329992213 -1.91E-06
    60 OT SD       0.80E-01   11.6     0.00001449     -6920.3329931995  6.02E-06
    61 OT DIIS     0.80E-01   11.8     0.00006780     -6920.3328107355  1.82E-04
    62 OT DIIS     0.80E-01   11.5     0.00000261     -6920.3329539056 -1.43E-04
    63 OT DIIS     0.80E-01   11.6     0.00000261     -6920.3329541720 -2.66E-07
    64 OT DIIS     0.80E-01   11.4     0.00000258     -6920.3329554064 -1.23E-06
    65 OT DIIS     0.80E-01   11.5     0.00000219     -6920.3329869947 -3.16E-05
    66 OT SD       0.80E-01   11.5     0.00000223     -6920.3329918922 -4.90E-06
    67 OT SD       0.80E-01   11.5     0.00000277     -6920.3329940351 -2.14E-06
    68 OT SD       0.80E-01   11.5     0.00000728     -6920.3329942425 -2.07E-07
    69 OT DIIS     0.80E-01   11.6     0.00003098     -6920.3329569204  3.73E-05
    70 OT SD       0.80E-01   11.5     0.00000222     -6920.3329865041 -2.96E-05
    71 OT SD       0.80E-01   11.6     0.00000315     -6920.3329885541 -2.05E-06
    72 OT SD       0.80E-01   11.5     0.00001080     -6920.3329862731  2.28E-06
    73 OT DIIS     0.80E-01   11.5     0.00005024     -6920.3328876438  9.86E-05
    74 OT DIIS     0.80E-01   11.4     0.00000226     -6920.3329704512 -8.28E-05
    75 OT SD       0.80E-01   11.6     0.00000222     -6920.3329788637 -8.41E-06
    76 OT SD       0.80E-01   11.4     0.00000316     -6920.3329808977 -2.03E-06
    77 OT SD       0.80E-01   11.5     0.00001093     -6920.3329784796  2.42E-06
    78 OT DIIS     0.80E-01   11.6     0.00005061     -6920.3328775875  1.01E-04
    79 OT SD       0.80E-01   11.6     0.00000216     -6920.3329814066 -1.04E-04
    80 OT SD       0.80E-01   11.5     0.00000225     -6920.3329836455 -2.24E-06
    81 OT SD       0.80E-01   11.5     0.00000366     -6920.3329855524 -1.91E-06
    82 OT SD       0.80E-01   11.5     0.00001433     -6920.3329798390  5.71E-06
    83 OT DIIS     0.80E-01   11.5     0.00006896     -6920.3327948353  1.85E-04
    84 OT SD       0.80E-01   11.6     0.00000228     -6920.3329557761 -1.61E-04
    85 OT SD       0.80E-01   11.4     0.00000281     -6920.3329578546 -2.08E-06
    86 OT DIIS     0.80E-01   11.6     0.00000688     -6920.3329582604 -4.06E-07
    87 OT SD       0.80E-01   11.5     0.00000216     -6920.3329597377 -1.48E-06
    88 OT DIIS     0.80E-01   11.4     0.00000241     -6920.3329619206 -2.18E-06
    89 OT DIIS     0.80E-01   11.5     0.00000215     -6920.3329653020 -3.38E-06
    90 OT DIIS     0.80E-01   11.4     0.00000215     -6920.3329678805 -2.58E-06
    91 OT SD       0.80E-01   11.4     0.00000215     -6920.3329708996 -3.02E-06
    92 OT SD       0.80E-01   11.6     0.00000216     -6920.3329731294 -2.23E-06
    93 OT SD       0.80E-01   11.4     0.00000237     -6920.3329753220 -2.19E-06
    94 OT SD       0.80E-01   11.4     0.00000520     -6920.3329766648 -1.34E-06
    95 OT DIIS     0.80E-01   11.4     0.00002310     -6920.3329580619  1.86E-05
    96 OT SD       0.80E-01   11.4     0.00000215     -6920.3329649494 -6.89E-06
    97 OT SD       0.80E-01   11.5     0.00000221     -6920.3329671632 -2.21E-06
    98 OT SD       0.80E-01   11.5     0.00000316     -6920.3329691670 -2.00E-06
    99 OT DIIS     0.80E-01   11.4     0.00001097     -6920.3329666989  2.47E-06
   100 OT DIIS     0.80E-01   11.5     0.00000216     -6920.3329643307  2.37E-06

  Leaving inner SCF loop after reaching   100 steps.


  Electronic density on regular grids:      -2431.9999999823        0.0000000177
  Core density on regular grids:             2431.9999999988       -0.0000000012
  Total charge density on r-space grids:        0.0000000166
  Total charge density g-space grids:           0.0000000166

  Overlap energy of the core charge distribution:               0.00000901144674
  Self energy of the core charge distribution:             -16017.19408509233290
  Core Hamiltonian energy:                                   4262.46560478959782
  Hartree energy:                                            6154.95402489733988
  Exchange-correlation energy:                              -1318.81360220018951
  Dispersion energy:                                           -1.74491573657298

  Total energy:                                             -6920.33296433071064

  outer SCF iter =    9 RMS gradient =   0.22E-05 energy =      -6920.3329643307

  ----------------------------------- OT ---------------------------------------
  Minimizer      : DIIS                : direct inversion
                                         in the iterative subspace
                                         using   7 DIIS vectors
                                         safer DIIS on
  Preconditioner : FULL_SINGLE_INVERSE : inversion of 
                                         H + eS - 2*(Sc)(c^T*H*c+const)(Sc)^T
  Precond_solver : DEFAULT
  stepsize       :    0.08000000                  energy_gap     :    0.08000000
  eps_taylor     :   0.10000E-15                  max_taylor     :             4
  ----------------------------------- OT ---------------------------------------

  Step     Update method      Time    Convergence         Total energy    Change
  ------------------------------------------------------------------------------
     1 OT DIIS     0.80E-01   27.4     0.00000215     -6920.3329736520 -9.32E-06
     2 OT DIIS     0.80E-01   11.4     0.00000238     -6920.3329758336 -2.18E-06
     3 OT DIIS     0.80E-01   11.4     0.00000215     -6920.3329762704 -4.37E-07
     4 OT SD       0.80E-01   11.4     0.00000214     -6920.3329767177 -4.47E-07
     5 OT SD       0.80E-01   11.5     0.00000215     -6920.3329789442 -2.23E-06
     6 OT SD       0.80E-01   11.4     0.00000216     -6920.3329811702 -2.23E-06
     7 OT SD       0.80E-01   11.4     0.00000247     -6920.3329833404 -2.17E-06
     8 OT SD       0.80E-01   11.6     0.00000610     -6920.3329842636 -9.23E-07
     9 OT DIIS     0.80E-01   11.4     0.00002735     -6920.3329568631  2.74E-05
    10 OT DIIS     0.80E-01   11.5     0.00000235     -6920.3329479558  8.91E-06
    11 OT DIIS     0.80E-01   11.6     0.00000233     -6920.3329486856 -7.30E-07
    12 OT DIIS     0.80E-01   11.5     0.00000233     -6920.3329488680 -1.82E-07
    13 OT DIIS     0.80E-01   11.5     0.00000216     -6920.3329778726 -2.90E-05
    14 OT SD       0.80E-01   11.5     0.00000217     -6920.3329849898 -7.12E-06
    15 OT SD       0.80E-01   11.5     0.00000249     -6920.3329871662 -2.18E-06
    16 OT SD       0.80E-01   11.5     0.00000626     -6920.3329880312 -8.65E-07
    17 OT DIIS     0.80E-01   11.6     0.00002851     -6920.3329583474  2.97E-05
    18 OT SD       0.80E-01   11.5     0.00000219     -6920.3329770341 -1.87E-05
    19 OT SD       0.80E-01   11.5     0.00000285     -6920.3329791053 -2.07E-06
    20 OT SD       0.80E-01   11.5     0.00000846     -6920.3329785247  5.81E-07
    21 OT DIIS     0.80E-01   11.7     0.00003769     -6920.3329230483  5.55E-05
    22 OT DIIS     0.80E-01   11.5     0.00000261     -6920.3329415953 -1.85E-05
    23 OT SD       0.80E-01   11.4     0.00000216     -6920.3329784808 -3.69E-05
    24 OT SD       0.80E-01   11.4     0.00000239     -6920.3329806625 -2.18E-06
    25 OT SD       0.80E-01   11.6     0.00000541     -6920.3329819139 -1.25E-06
    26 OT DIIS     0.80E-01   11.5     0.00002435     -6920.3329610592  2.09E-05
    27 OT SD       0.80E-01   11.5     0.00000219     -6920.3329743465 -1.33E-05
    28 OT SD       0.80E-01   11.5     0.00000285     -6920.3329764197 -2.07E-06
    29 OT SD       0.80E-01   11.5     0.00000901     -6920.3329755501  8.70E-07
    30 OT DIIS     0.80E-01   11.5     0.00004200     -6920.3329078594  6.77E-05
    31 OT DIIS     0.80E-01   11.6     0.00000223     -6920.3329512683 -4.34E-05
    32 OT SD       0.80E-01   11.5     0.00000215     -6920.3329770114 -2.57E-05
    33 OT SD       0.80E-01   11.5     0.00000220     -6920.3329792252 -2.21E-06
    34 OT SD       0.80E-01   11.5     0.00000301     -6920.3329812629 -2.04E-06
    35 OT SD       0.80E-01   11.6     0.00000974     -6920.3329797341  1.53E-06
    36 OT DIIS     0.80E-01   11.6     0.00004359     -6920.3329040111  7.57E-05
    37 OT SD       0.80E-01   11.5     0.00000225     -6920.3329509742 -4.70E-05
    38 OT SD       0.80E-01   11.5     0.00000253     -6920.3329530853 -2.11E-06
    39 OT DIIS     0.80E-01   11.6     0.00000373     -6920.3329548037 -1.72E-06
    40 OT SD       0.80E-01   11.6     0.00000214     -6920.3329567453 -1.94E-06
    41 OT DIIS     0.80E-01   11.3     0.00000234     -6920.3329589134 -2.17E-06
    42 OT DIIS     0.80E-01   11.5     0.00000214     -6920.3329625111 -3.60E-06
    43 OT DIIS     0.80E-01   11.5     0.00000214     -6920.3329665040 -3.99E-06
    44 OT DIIS     0.80E-01   11.5     0.00000214     -6920.3329699294 -3.43E-06
    45 OT SD       0.80E-01   11.5     0.00000213     -6920.3329711138 -1.18E-06
    46 OT SD       0.80E-01   11.5     0.00000217     -6920.3329733122 -2.20E-06
    47 OT SD       0.80E-01   11.5     0.00000290     -6920.3329753675 -2.06E-06
    48 OT SD       0.80E-01   11.5     0.00000981     -6920.3329739691  1.40E-06
    49 OT DIIS     0.80E-01   11.5     0.00004708     -6920.3328892894  8.47E-05
    50 OT SD       0.80E-01   11.6     0.00000215     -6920.3329577788 -6.85E-05
    51 OT SD       0.80E-01   11.4     0.00000228     -6920.3329599471 -2.17E-06
    52 OT SD       0.80E-01   11.5     0.00000390     -6920.3329616945 -1.75E-06
    53 OT DIIS     0.80E-01   11.5     0.00001512     -6920.3329548052  6.89E-06
    54 OT DIIS     0.80E-01   11.6     0.00000214     -6920.3329542139  5.91E-07
    55 OT DIIS     0.80E-01   11.5     0.00000213     -6920.3329554151 -1.20E-06
    56 OT SD       0.80E-01   11.6     0.00000215     -6920.3329601395 -4.72E-06
    57 OT SD       0.80E-01   11.6     0.00000244     -6920.3329622565 -2.12E-06
    58 OT DIIS     0.80E-01   11.5     0.00000571     -6920.3329632936 -1.04E-06
    59 OT DIIS     0.80E-01   11.5     0.00000213     -6920.3329659416 -2.65E-06
    60 OT DIIS     0.80E-01   11.5     0.00000213     -6920.3329747236 -8.78E-06
    61 OT SD       0.80E-01   11.4     0.00000213     -6920.3329767926 -2.07E-06
    62 OT SD       0.80E-01   11.4     0.00000219     -6920.3329789638 -2.17E-06
    63 OT SD       0.80E-01   11.4     0.00000298     -6920.3329809720 -2.01E-06
    64 OT SD       0.80E-01   11.5     0.00000977     -6920.3329794893  1.48E-06
    65 OT DIIS     0.80E-01   11.5     0.00004564     -6920.3328989816  8.05E-05
    66 OT SD       0.80E-01   11.5     0.00000217     -6920.3329678033 -6.88E-05
    67 OT SD       0.80E-01   11.6     0.00000283     -6920.3329697902 -1.99E-06
    68 OT SD       0.80E-01   11.4     0.00000892     -6920.3329689338  8.56E-07
    69 OT DIIS     0.80E-01   11.6     0.00004222     -6920.3329013645  6.76E-05
    70 OT DIIS     0.80E-01   11.6     0.00000211     -6920.3329635754 -6.22E-05
    71 OT DIIS     0.80E-01   11.4     0.00000211     -6920.3329685330 -4.96E-06
    72 OT SD       0.80E-01   11.6     0.00000211     -6920.3329687134 -1.80E-07
    73 OT SD       0.80E-01   11.5     0.00000221     -6920.3329708343 -2.12E-06
    74 OT SD       0.80E-01   11.5     0.00000351     -6920.3329726351 -1.80E-06
    75 OT SD       0.80E-01   11.5     0.00001214     -6920.3329686240  4.01E-06
    76 OT DIIS     0.80E-01   11.5     0.00005260     -6920.3328543246  1.14E-04
    77 OT DIIS     0.80E-01   11.5     0.00000223     -6920.3329386466 -8.43E-05
    78 OT DIIS     0.80E-01   11.6     0.00000215     -6920.3329519858 -1.33E-05
    79 OT DIIS     0.80E-01   11.5     0.00000215     -6920.3329546732 -2.69E-06
    80 OT DIIS     0.80E-01   11.5     0.00000217     -6920.3329686353 -1.40E-05
    81 OT SD       0.80E-01   11.6     0.00000214     -6920.3329703545 -1.72E-06
    82 OT SD       0.80E-01   11.5     0.00000278     -6920.3329723579 -2.00E-06
    83 OT SD       0.80E-01   11.4     0.00000861     -6920.3329716669  6.91E-07
    84 OT DIIS     0.80E-01   11.5     0.00003959     -6920.3329111127  6.06E-05
    85 OT SD       0.80E-01   11.6     0.00000211     -6920.3329596006 -4.85E-05
    86 OT SD       0.80E-01   11.5     0.00000229     -6920.3329616811 -2.08E-06
    87 OT SD       0.80E-01   11.5     0.00000451     -6920.3329631363 -1.46E-06
    88 OT DIIS     0.80E-01   12.0     0.00001870     -6920.3329513564  1.18E-05
    89 OT DIIS     0.80E-01   12.5     0.00000213     -6920.3329479997  3.36E-06
    90 OT SD       0.80E-01   12.7     0.00000209     -6920.3329606370 -1.26E-05
    91 OT SD       0.80E-01   12.6     0.00000215     -6920.3329627443 -2.11E-06
    92 OT SD       0.80E-01   12.6     0.00000300     -6920.3329646722 -1.93E-06
    93 OT SD       0.80E-01   12.5     0.00001015     -6920.3329627934  1.88E-06
    94 OT DIIS     0.80E-01   12.5     0.00004719     -6920.3328758632  8.69E-05
    95 OT DIIS     0.80E-01   13.7     0.00000210     -6920.3329482145 -7.24E-05
    96 OT SD       0.80E-01   19.5     0.00000210     -6920.3329489294 -7.15E-07
    97 OT DIIS     0.80E-01   20.5     0.00000219     -6920.3329510229 -2.09E-06
    98 OT SD       0.80E-01   22.1     0.00000210     -6920.3329516944 -6.71E-07
    99 OT DIIS     0.80E-01   25.9     0.00000243     -6920.3329537459 -2.05E-06
   100 OT DIIS     0.80E-01   26.8     0.00000209     -6920.3329551815 -1.44E-06

  Leaving inner SCF loop after reaching   100 steps.


  Electronic density on regular grids:      -2431.9999999823        0.0000000177
  Core density on regular grids:             2431.9999999988       -0.0000000012
  Total charge density on r-space grids:        0.0000000165
  Total charge density g-space grids:           0.0000000165

  Overlap energy of the core charge distribution:               0.00000901144674
  Self energy of the core charge distribution:             -16017.19408509233290
  Core Hamiltonian energy:                                   4262.46569234756407
  Hartree energy:                                            6154.95394828868120
  Exchange-correlation energy:                              -1318.81360400032941
  Dispersion energy:                                           -1.74491573657298

  Total energy:                                             -6920.33295518154409
