 DBCSR| CPU Multiplication driver                                           XSMM (U)
 DBCSR| Multrec recursion limit                                              512 (U)
 DBCSR| Multiplication stack size                                          30000 (D)
 DBCSR| Maximum elements for images                                    UNLIMITED (U)
 DBCSR| Multiplicative factor virtual images                                   1 (U)
 DBCSR| Use multiplication densification                                       F (D)
 DBCSR| Multiplication size stacks                                             3 (U)
 DBCSR| Use memory pool for CPU allocation                                     F (U)
 DBCSR| Number of 3D layers                                               SINGLE (U)
 DBCSR| Use MPI memory allocation                                              F (U)
 DBCSR| Use RMA algorithm                                                      F (U)
 DBCSR| Use Communication thread                                               T (U)
 DBCSR| Communication thread load                                             30 (D)
 DBCSR| MPI: My process id                                                     0
 DBCSR| MPI: Number of processes                                               1
 DBCSR| OMP: Current number of threads                                        16
 DBCSR| OMP: Max number of threads                                            16
 DBCSR| ACC: Number of devices/node                                            1
 DBCSR| ACC: Number of stack-buffers per thread                                8 (U)
 DBCSR| ACC: Avoid driver after busy                                           F (U)
 DBCSR| ACC: Process inhomogeneous stacks                                      T (U)
 DBCSR| ACC: Min. flop for processing                                          0 (U)
 DBCSR| ACC: Use G2G algorithm                                                 F (D)
 DBCSR| ACC: Min. flop for sorting                                          4000 (U)
 DBCSR| ACC: Number of binning bins                                         4096 (U)
 DBCSR| ACC: Size of binning bins                                             16 (U)
 DBCSR| ACC: GPU backend is enabled                                            T (D)
 DBCSR| Split modifier for TAS multiplication algorithm                  1.0E+00 (U)


  **** **** ******  **  PROGRAM STARTED AT               2025-10-22 17:40:19.227
 ***** ** ***  *** **   PROGRAM STARTED ON                          5efd787fc282
 **    ****   ******    PROGRAM STARTED BY                             <unknown>
 ***** **    ** ** **   PROGRAM PROCESS ID                                   614
  **** **  *******  **  PROGRAM STARTED IN                             /mnt/cp2k

 CP2K| version string:                                       CP2K version 2025.1
 CP2K| source code revision number:                                  git:9635df4
 CP2K| cp2kflags: omp libint fftw3 libxc libgrpp pexsi elpa elpa_nvidia_gpu para
 CP2K|            llel scalapack cosma quip xsmm dbcsr_acc plumed2 spglib libdft
 CP2K|            td4 sirius libvori libbqb offload_cuda spla_gemm_offloading li
 CP2K|            ibvdwxc hdf5 trexio
 CP2K| is freely available from                            https://www.cp2k.org/
 CP2K| Program compiled at                          Tue Jan 14 21:07:27 UTC 2025
 CP2K| Program compiled on                                          eb3a76499499
 CP2K| Program compiled for                                           local_cuda
 CP2K| Data directory path                                        /opt/cp2k/data
 CP2K| Input file name                                           HAP_111_opt.inp

 GLOBAL| Force Environment number                                              1
 GLOBAL| Basis set file name                                        BASIS_MOLOPT
 GLOBAL| Potential file name                                      GTH_POTENTIALS
 GLOBAL| MM Potential file name                                     MM_POTENTIAL
 GLOBAL| Coordinate file name                                  HAP_111_clean.xyz
 GLOBAL| Method name                                                        CP2K
 GLOBAL| Project name                                                HAP_111_opt
 GLOBAL| Run type                                                        GEO_OPT
 GLOBAL| FFT library                                                       FFTW3
 GLOBAL| Diagonalization library                                            ELPA
 GLOBAL| DGEMM library                                                      SPLA
 GLOBAL| Minimum number of eigenvectors for ELPA usage                        16
 GLOBAL| Orthonormality check for eigenvectors                          DISABLED
 GLOBAL| Matrix multiplication library                                     COSMA
 GLOBAL| All-to-all communication in single precision                          F
 GLOBAL| FFTs using library dependent lengths                                  F
 GLOBAL| Grid backend                                                       AUTO
 GLOBAL| Global print level                                                  LOW
 GLOBAL| MPI I/O enabled                                                       T
 GLOBAL| Total number of message passing processes                             1
 GLOBAL| Number of threads for this process                                   16
 GLOBAL| This output is from process                                           0
 GLOBAL| OpenMP stack size per thread (OMP_STACKSIZE)                        16M
 GLOBAL| CPU model name                              Intel(R) Core(TM) i7-14700K
 GLOBAL| CPUID                                                              1002
 GLOBAL| Compiled for CPUID                                                    0

 *** HINT in environment.F:928 :: The compiler target flags (generic) used ***
 *** to build this binary cannot exploit all extensions of this CPU model  ***
 *** (x86_avx2). Consider compiler target flags as part of FCFLAGS and     ***
 *** CFLAGS (ARCH file).                                                   ***


 MEMORY| system memory details [Kb]
 MEMORY|                        rank 0           min           max       average
 MEMORY| MemTotal             32768664      32768664      32768664      32768664
 MEMORY| MemFree              19894312      19894312      19894312      19894312
 MEMORY| Buffers                 18028         18028         18028         18028
 MEMORY| Cached                3134472       3134472       3134472       3134472
 MEMORY| Slab                   139948        139948        139948        139948
 MEMORY| SReclaimable            45280         45280         45280         45280
 MEMORY| MemLikelyFree        23092092      23092092      23092092      23092092


 GENERATE|  Preliminary Number of Bonds generated:                             0
 GENERATE|  Achieved consistency in connectivity generation.

 *******************************************************************************
 *******************************************************************************
 **                                                                           **
 **     #####                         ##              ##                      **
 **    ##   ##            ##          ##              ##                      **
 **   ##     ##                       ##            ######                    **
 **   ##     ##  ##   ##  ##   #####  ##  ##   ####   ##    #####    #####    **
 **   ##     ##  ##   ##  ##  ##      ## ##   ##      ##   ##   ##  ##   ##   **
 **   ##  ## ##  ##   ##  ##  ##      ####     ###    ##   ######   ######    **
 **    ##  ###   ##   ##  ##  ##      ## ##      ##   ##   ##       ##        **
 **     #######   #####   ##   #####  ##  ##  ####    ##    #####   ##        **
 **           ##                                                    ##        **
 **                                                                           **
 **                                                ... make the atoms dance   **
 **                                                                           **
 **            Copyright (C) by CP2K developers group (2000-2025)             **
 **                      J. Chem. Phys. 152, 194103 (2020)                    **
 **                                                                           **
 *******************************************************************************


 TOTAL NUMBERS AND MAXIMUM NUMBERS

  Total number of            - Atomic kinds:                                   5
                             - Atoms:                                        387
                             - Shell sets:                                   387
                             - Shells:                                      2015
                             - Primitive Cartesian functions:               2031
                             - Cartesian basis functions:                   5338
                             - Spherical basis functions:                   4983

  Maximum angular momentum of- Orbital basis functions:                        2
                             - Local part of the GTH pseudopotential:          2
                             - Non-local part of the GTH pseudopotential:      3


 SCF PARAMETERS         Density guess:                                    ATOMIC
                        --------------------------------------------------------
                        max_scf:                                             100
                        max_scf_history:                                       0
                        max_diis:                                              4
                        --------------------------------------------------------
                        eps_scf:                                        1.00E-06
                        eps_scf_history:                                0.00E+00
                        eps_diis:                                       1.00E-01
                        eps_eigval:                                     1.00E-05
                        --------------------------------------------------------
                        level_shift [a.u.]:                             0.000000
                        --------------------------------------------------------
                        Outer loop SCF in use 
                        No variables optimised in outer loop
                        eps_scf                                         1.00E-06
                        max_scf                                               50
                        No outer loop optimization
                        step_size                                       5.00E-01

 *******************************************************************************
 ***                     STARTING GEOMETRY OPTIMIZATION                      ***
 ***                                 L-BFGS                                  ***
 *******************************************************************************

 --------------------------
 OPTIMIZATION STEP:      1
 --------------------------

 Number of electrons:                                                       2432
 Number of occupied orbitals:                                               1216
 Number of molecular orbitals:                                              1216

 Number of orbital functions:                                               4983
 Number of independent orbital functions:                                   4983

 Extrapolation method: initial_guess


 SCF WAVEFUNCTION OPTIMIZATION

  ----------------------------------- OT ---------------------------------------
  Minimizer      : DIIS                : direct inversion
                                         in the iterative subspace
                                         using   7 DIIS vectors
                                         safer DIIS on
  Preconditioner : FULL_SINGLE_INVERSE : inversion of 
                                         H + eS - 2*(Sc)(c^T*H*c+const)(Sc)^T
  Precond_solver : DEFAULT
  stepsize       :    0.08000000                  energy_gap     :    0.08000000
  eps_taylor     :   0.10000E-15                  max_taylor     :             4
  ----------------------------------- OT ---------------------------------------

  Step     Update method      Time    Convergence         Total energy    Change
  ------------------------------------------------------------------------------
     1 OT DIIS     0.80E-01   53.2     0.01672781     -6692.1228327555 -6.69E+03
     2 OT DIIS     0.80E-01   39.3     0.01124179     -6762.7950634540 -7.07E+01
     3 OT DIIS     0.80E-01   40.8     0.00753538     -6794.1422078751 -3.13E+01
     4 OT DIIS     0.80E-01   32.4     0.00583650     -6821.3540997410 -2.72E+01
     5 OT DIIS     0.80E-01   36.9     0.00413145     -6841.3057863053 -2.00E+01
     6 OT DIIS     0.80E-01   37.5     0.00334762     -6853.8259258619 -1.25E+01
     7 OT DIIS     0.80E-01   31.8     0.00272193     -6863.3919121332 -9.57E+00
     8 OT DIIS     0.80E-01   27.2     0.00226523     -6869.4742150039 -6.08E+00
     9 OT DIIS     0.80E-01   30.2     0.00178395     -6875.0625485374 -5.59E+00
    10 OT DIIS     0.80E-01   39.2     0.00139864     -6879.6445324345 -4.58E+00
    11 OT DIIS     0.80E-01   40.3     0.00111193     -6882.5621741437 -2.92E+00
    12 OT DIIS     0.80E-01   40.1     0.00093027     -6884.3063261958 -1.74E+00
    13 OT DIIS     0.80E-01   35.6     0.00074839     -6885.8840039114 -1.58E+00
    14 OT DIIS     0.80E-01   39.5     0.00063524     -6886.7416496141 -8.58E-01
    15 OT DIIS     0.80E-01   43.4     0.00054428     -6887.3909337400 -6.49E-01
    16 OT DIIS     0.80E-01   40.4     0.00045400     -6887.9900454362 -5.99E-01
    17 OT DIIS     0.80E-01   40.2     0.00038388     -6888.4076928693 -4.18E-01
    18 OT DIIS     0.80E-01   41.9     0.00033727     -6888.6722802324 -2.65E-01
    19 OT DIIS     0.80E-01   40.5     0.00028964     -6888.9286998400 -2.56E-01
    20 OT DIIS     0.80E-01   38.1     0.00025331     -6889.1238548353 -1.95E-01
    21 OT DIIS     0.80E-01   40.9     0.00022435     -6889.2642632463 -1.40E-01
    22 OT DIIS     0.80E-01   40.8     0.00020020     -6889.3800577716 -1.16E-01
    23 OT DIIS     0.80E-01   44.9     0.00017881     -6889.4787405439 -9.87E-02
    24 OT DIIS     0.80E-01   38.3     0.00015987     -6889.5646505033 -8.59E-02
    25 OT DIIS     0.80E-01   33.4     0.00014784     -6889.6140604315 -4.94E-02
    26 OT DIIS     0.80E-01   40.6     0.00013138     -6889.6829139260 -6.89E-02
    27 OT DIIS     0.80E-01   38.1     0.00011833     -6889.7389074110 -5.60E-02
    28 OT DIIS     0.80E-01   40.8     0.00011047     -6889.7704126773 -3.15E-02
    29 OT DIIS     0.80E-01   40.3     0.00010154     -6889.8083266032 -3.79E-02
    30 OT DIIS     0.80E-01   41.2     0.00009405     -6889.8401644439 -3.18E-02
    31 OT DIIS     0.80E-01   35.8     0.00008891     -6889.8641901051 -2.40E-02
    32 OT DIIS     0.80E-01   38.2     0.00008391     -6889.8833631876 -1.92E-02
    33 OT DIIS     0.80E-01   41.9     0.00007719     -6889.9120516575 -2.87E-02
    34 OT DIIS     0.80E-01   38.7     0.00007108     -6889.9372694634 -2.52E-02
    35 OT DIIS     0.80E-01   40.4     0.00006741     -6889.9513438540 -1.41E-02
    36 OT DIIS     0.80E-01   39.8     0.00006303     -6889.9682269097 -1.69E-02
    37 OT DIIS     0.80E-01   40.1     0.00005823     -6889.9871779051 -1.90E-02
    38 OT DIIS     0.80E-01   40.3     0.00005557     -6889.9985288142 -1.14E-02
    39 OT DIIS     0.80E-01   40.6     0.00005275     -6890.0085565527 -1.00E-02
    40 OT DIIS     0.80E-01   39.9     0.00004916     -6890.0247361472 -1.62E-02
    41 OT DIIS     0.80E-01   39.2     0.00004670     -6890.0358271226 -1.11E-02
    42 OT DIIS     0.80E-01   40.6     0.00004514     -6890.0419021390 -6.08E-03
    43 OT DIIS     0.80E-01   37.4     0.00004266     -6890.0515074405 -9.61E-03
    44 OT DIIS     0.80E-01   40.2     0.00004013     -6890.0619806253 -1.05E-02
    45 OT DIIS     0.80E-01   39.8     0.00003829     -6890.0698135713 -7.83E-03
    46 OT DIIS     0.80E-01   42.9     0.00003670     -6890.0751603773 -5.35E-03
    47 OT DIIS     0.80E-01   38.3     0.00003458     -6890.0843824789 -9.22E-03
    48 OT DIIS     0.80E-01   40.9     0.00003291     -6890.0915684757 -7.19E-03
    49 OT DIIS     0.80E-01   38.8     0.00003181     -6890.0953389715 -3.77E-03
    50 OT DIIS     0.80E-01   40.6     0.00002995     -6890.1017980807 -6.46E-03
    51 OT DIIS     0.80E-01   37.1     0.00002881     -6890.1059927032 -4.19E-03
    52 OT DIIS     0.80E-01   40.8     0.00002774     -6890.1103760714 -4.38E-03
    53 OT DIIS     0.80E-01   40.9     0.00002679     -6890.1138657204 -3.49E-03
    54 OT DIIS     0.80E-01   43.9     0.00002587     -6890.1179531792 -4.09E-03
    55 OT DIIS     0.80E-01   35.6     0.00002480     -6890.1227865342 -4.83E-03
    56 OT DIIS     0.80E-01   38.8     0.00002429     -6890.1250896347 -2.30E-03
    57 OT DIIS     0.80E-01   42.7     0.00002334     -6890.1289292168 -3.84E-03
    58 OT DIIS     0.80E-01   36.6     0.00002259     -6890.1326019880 -3.67E-03
    59 OT DIIS     0.80E-01   40.6     0.00002176     -6890.1360085196 -3.41E-03
    60 OT DIIS     0.80E-01   37.4     0.00002105     -6890.1389832877 -2.97E-03
    61 OT DIIS     0.80E-01   40.8     0.00002038     -6890.1423188552 -3.34E-03
    62 OT DIIS     0.80E-01   41.8     0.00001994     -6890.1450993076 -2.78E-03
    63 OT DIIS     0.80E-01   38.3     0.00001961     -6890.1461968475 -1.10E-03
    64 OT DIIS     0.80E-01   40.3     0.00001875     -6890.1499942424 -3.80E-03
    65 OT DIIS     0.80E-01   39.6     0.00001793     -6890.1534629548 -3.47E-03
    66 OT DIIS     0.80E-01   42.7     0.00001738     -6890.1558054177 -2.34E-03
    67 OT DIIS     0.80E-01   35.5     0.00001679     -6890.1582056132 -2.40E-03
    68 OT DIIS     0.80E-01   27.1     0.00001626     -6890.1605501861 -2.34E-03
    69 OT DIIS     0.80E-01   37.5     0.00001594     -6890.1622632678 -1.71E-03
    70 OT DIIS     0.80E-01   31.0     0.00001568     -6890.1631225352 -8.59E-04
    71 OT DIIS     0.80E-01   26.1     0.00001498     -6890.1659885196 -2.87E-03
    72 OT DIIS     0.80E-01   27.1     0.00001459     -6890.1677272969 -1.74E-03
    73 OT DIIS     0.80E-01   32.7     0.00001419     -6890.1696537405 -1.93E-03
    74 OT DIIS     0.80E-01   35.4     0.00001390     -6890.1708421131 -1.19E-03
    75 OT DIIS     0.80E-01   40.4     0.00001359     -6890.1724316047 -1.59E-03
    76 OT DIIS     0.80E-01   40.9     0.00001326     -6890.1740451250 -1.61E-03
    77 OT DIIS     0.80E-01   38.2     0.00001303     -6890.1750149139 -9.70E-04
    78 OT DIIS     0.80E-01   32.9     0.00001264     -6890.1768900671 -1.88E-03
    79 OT DIIS     0.80E-01   42.0     0.00001234     -6890.1785955971 -1.71E-03
    80 OT DIIS     0.80E-01   38.8     0.00001220     -6890.1793348057 -7.39E-04
    81 OT DIIS     0.80E-01   42.7     0.00001191     -6890.1802350010 -9.00E-04
    82 OT DIIS     0.80E-01   43.6     0.00001170     -6890.1816515247 -1.42E-03
    83 OT DIIS     0.80E-01   36.7     0.00001143     -6890.1831805740 -1.53E-03
    84 OT DIIS     0.80E-01   35.1     0.00001118     -6890.1840459703 -8.65E-04
    85 OT DIIS     0.80E-01   41.4     0.00001090     -6890.1853001301 -1.25E-03
    86 OT DIIS     0.80E-01   37.2     0.00001074     -6890.1864300905 -1.13E-03
    87 OT DIIS     0.80E-01   40.4     0.00001062     -6890.1869530950 -5.23E-04
    88 OT DIIS     0.80E-01   42.2     0.00001051     -6890.1874247772 -4.72E-04
    89 OT DIIS     0.80E-01   37.9     0.00001032     -6890.1882455456 -8.21E-04
    90 OT DIIS     0.80E-01   40.6     0.00001015     -6890.1897738807 -1.53E-03
    91 OT DIIS     0.80E-01   38.9     0.00001014     -6890.1899865912 -2.13E-04
    92 OT DIIS     0.80E-01   39.3     0.00000983     -6890.1907094152 -7.23E-04
    93 OT DIIS     0.80E-01   44.9     0.00000961     -6890.1916183915 -9.09E-04
    94 OT DIIS     0.80E-01   39.5     0.00000946     -6890.1923551009 -7.37E-04
    95 OT DIIS     0.80E-01   35.8     0.00000938     -6890.1926950349 -3.40E-04
    96 OT DIIS     0.80E-01   32.8     0.00000926     -6890.1933675989 -6.73E-04
    97 OT DIIS     0.80E-01   33.2     0.00000917     -6890.1941489802 -7.81E-04
    98 OT DIIS     0.80E-01   37.7     0.00000908     -6890.1948295147 -6.81E-04
    99 OT DIIS     0.80E-01   39.0     0.00000898     -6890.1953366573 -5.07E-04
   100 OT DIIS     0.80E-01   41.0     0.00000880     -6890.1967393276 -1.40E-03

  Leaving inner SCF loop after reaching   100 steps.


  Electronic density on regular grids:      -2431.9999999987        0.0000000013
  Core density on regular grids:             2431.9999999988       -0.0000000012
  Total charge density on r-space grids:        0.0000000002
  Total charge density g-space grids:           0.0000000002

  Overlap energy of the core charge distribution:               0.03255767795921
  Self energy of the core charge distribution:             -16017.19408509233290
  Core Hamiltonian energy:                                   4346.72869283274031
  Hartree energy:                                            6115.35211925547083
  Exchange-correlation energy:                              -1333.03448008388864
  Dispersion energy:                                           -2.08154391757772

  Total energy:                                             -6890.19673932762726

  outer SCF iter =    1 RMS gradient =   0.88E-05 energy =      -6890.1967393276

  ----------------------------------- OT ---------------------------------------
  Minimizer      : DIIS                : direct inversion
                                         in the iterative subspace
                                         using   7 DIIS vectors
                                         safer DIIS on
  Preconditioner : FULL_SINGLE_INVERSE : inversion of 
                                         H + eS - 2*(Sc)(c^T*H*c+const)(Sc)^T
  Precond_solver : DEFAULT
  stepsize       :    0.08000000                  energy_gap     :    0.08000000
  eps_taylor     :   0.10000E-15                  max_taylor     :             4
  ----------------------------------- OT ---------------------------------------

  Step     Update method      Time    Convergence         Total energy    Change
  ------------------------------------------------------------------------------
     1 OT DIIS     0.80E-01   85.1     0.00010883     -6890.1974065041 -6.67E-04
     2 OT DIIS     0.80E-01   39.4     0.00011842     -6890.2009679135 -3.56E-03
     3 OT DIIS     0.80E-01   41.5     0.00013841     -6890.2019214088 -9.53E-04
     4 OT DIIS     0.80E-01   39.8     0.00010580     -6890.2034780584 -1.56E-03
     5 OT DIIS     0.80E-01   37.4     0.00007763     -6890.2052909945 -1.81E-03
     6 OT DIIS     0.80E-01   36.1     0.00007455     -6890.2063488543 -1.06E-03
     7 OT DIIS     0.80E-01   38.9     0.00006008     -6890.2078039820 -1.46E-03
     8 OT DIIS     0.80E-01   39.0     0.00005719     -6890.2090251002 -1.22E-03
     9 OT DIIS     0.80E-01   41.8     0.00005017     -6890.2101352837 -1.11E-03
    10 OT DIIS     0.80E-01   37.0     0.00005105     -6890.2113868028 -1.25E-03
    11 OT DIIS     0.80E-01   36.4     0.00004705     -6890.2127409811 -1.35E-03
    12 OT DIIS     0.80E-01   39.4     0.00004634     -6890.2140306842 -1.29E-03
    13 OT DIIS     0.80E-01   39.5     0.00004573     -6890.2152934183 -1.26E-03
    14 OT DIIS     0.80E-01   41.1     0.00004325     -6890.2164642152 -1.17E-03
    15 OT DIIS     0.80E-01   39.8     0.00004305     -6890.2174731713 -1.01E-03
    16 OT DIIS     0.80E-01   41.5     0.00004253     -6890.2183690924 -8.96E-04
    17 OT DIIS     0.80E-01   40.8     0.00003936     -6890.2194092248 -1.04E-03
    18 OT DIIS     0.80E-01   40.3     0.00003433     -6890.2204179397 -1.01E-03
    19 OT DIIS     0.80E-01   40.8     0.00003819     -6890.2209475850 -5.30E-04
    20 OT DIIS     0.80E-01   40.6     0.00003729     -6890.2215875742 -6.40E-04
    21 OT DIIS     0.80E-01   38.3     0.00003505     -6890.2222001031 -6.13E-04
    22 OT DIIS     0.80E-01   40.5     0.00003698     -6890.2224542707 -2.54E-04
    23 OT DIIS     0.80E-01   36.5     0.00003377     -6890.2229254306 -4.71E-04
    24 OT DIIS     0.80E-01   39.7     0.00003385     -6890.2232972708 -3.72E-04
    25 OT SD       0.80E-01   40.0     0.00003342     -6890.2234440163 -1.47E-04
    26 OT DIIS     0.80E-01   40.6     0.00013183     -6890.2229956566  4.48E-04
    27 OT DIIS     0.80E-01   37.7     0.00002649     -6890.2238701357 -8.74E-04
    28 OT DIIS     0.80E-01   40.3     0.00002717     -6890.2239988800 -1.29E-04
    29 OT DIIS     0.80E-01   41.2     0.00002585     -6890.2241327457 -1.34E-04
    30 OT DIIS     0.80E-01   40.1     0.00002534     -6890.2242181507 -8.54E-05
    31 OT DIIS     0.80E-01   40.5     0.00002504     -6890.2243109587 -9.28E-05
    32 OT SD       0.80E-01   36.8     0.00002774     -6890.2254810102 -1.17E-03
    33 OT DIIS     0.80E-01   40.5     0.00010126     -6890.2251872279  2.94E-04
    34 OT DIIS     0.80E-01   40.1     0.00002266     -6890.2257799753 -5.93E-04
    35 OT DIIS     0.80E-01   40.4     0.00002037     -6890.2260572140 -2.77E-04
    36 OT DIIS     0.80E-01   39.6     0.00001665     -6890.2263573448 -3.00E-04
    37 OT DIIS     0.80E-01   40.4     0.00001492     -6890.2265330515 -1.76E-04
    38 OT DIIS     0.80E-01   40.3     0.00001740     -6890.2269114805 -3.78E-04
    39 OT SD       0.80E-01   37.6     0.00001449     -6890.2269807051 -6.92E-05
    40 OT DIIS     0.80E-01   38.4     0.00003446     -6890.2270057676 -2.51E-05
    41 OT DIIS     0.80E-01   39.9     0.00001319     -6890.2274155476 -4.10E-04
    42 OT DIIS     0.80E-01   42.1     0.00001254     -6890.2275372756 -1.22E-04
    43 OT DIIS     0.80E-01   40.2     0.00001194     -6890.2276613060 -1.24E-04
    44 OT DIIS     0.80E-01   39.7     0.00001424     -6890.2277426057 -8.13E-05
    45 OT DIIS     0.80E-01   41.0     0.00001131     -6890.2278583622 -1.16E-04
    46 OT DIIS     0.80E-01   37.5     0.00001224     -6890.2279642517 -1.06E-04
    47 OT DIIS     0.80E-01   40.3     0.00001144     -6890.2281789803 -2.15E-04
    48 OT DIIS     0.80E-01   43.9     0.00001111     -6890.2283024747 -1.23E-04
    49 OT DIIS     0.80E-01   35.5     0.00001099     -6890.2284523493 -1.50E-04
    50 OT DIIS     0.80E-01   41.0     0.00001268     -6890.2284469167  5.43E-06
    51 OT DIIS     0.80E-01   43.5     0.00001136     -6890.2284790021 -3.21E-05
    52 OT DIIS     0.80E-01   37.9     0.00001112     -6890.2286744044 -1.95E-04
    53 OT DIIS     0.80E-01   41.4     0.00001089     -6890.2287074229 -3.30E-05
    54 OT DIIS     0.80E-01   43.0     0.00001006     -6890.2288638268 -1.56E-04
    55 OT SD       0.80E-01   35.8     0.00001058     -6890.2289718652 -1.08E-04
    56 OT DIIS     0.80E-01   37.7     0.00002878     -6890.2289748900 -3.02E-06
    57 OT DIIS     0.80E-01   42.2     0.00000994     -6890.2290904120 -1.16E-04
    58 OT DIIS     0.80E-01   35.3     0.00001037     -6890.2292091015 -1.19E-04
    59 OT SD       0.80E-01   38.4     0.00001141     -6890.2293155883 -1.06E-04
    60 OT DIIS     0.80E-01   42.1     0.00004399     -6890.2292753242  4.03E-05
    61 OT DIIS     0.80E-01   37.0     0.00000977     -6890.2294785794 -2.03E-04
    62 OT DIIS     0.80E-01   40.7     0.00000960     -6890.2295119729 -3.34E-05
    63 OT DIIS     0.80E-01   42.3     0.00000830     -6890.2295452015 -3.32E-05
    64 OT SD       0.80E-01   40.3     0.00000929     -6890.2297707598 -2.26E-04
    65 OT DIIS     0.80E-01   41.7     0.00002116     -6890.2297758976 -5.14E-06
    66 OT SD       0.80E-01   37.5     0.00000864     -6890.2298409603 -6.51E-05
    67 OT DIIS     0.80E-01   37.9     0.00002525     -6890.2298382078  2.75E-06
    68 OT DIIS     0.80E-01   43.0     0.00000813     -6890.2299493503 -1.11E-04
    69 OT DIIS     0.80E-01   41.8     0.00000789     -6890.2300143577 -6.50E-05
    70 OT DIIS     0.80E-01   35.8     0.00000845     -6890.2300145380 -1.80E-07
    71 OT SD       0.80E-01   40.2     0.00000783     -6890.2301394489 -1.25E-04
    72 OT DIIS     0.80E-01   42.3     0.00002276     -6890.2301390151  4.34E-07
    73 OT DIIS     0.80E-01   36.9     0.00000740     -6890.2302005469 -6.15E-05
    74 OT DIIS     0.80E-01   39.0     0.00000727     -6890.2303245410 -1.24E-04
    75 OT SD       0.80E-01   37.6     0.00000865     -6890.2304673190 -1.43E-04
    76 OT SD       0.80E-01   35.9     0.00001564     -6890.2304724410 -5.12E-06
    77 OT DIIS     0.80E-01   42.1     0.00004949     -6890.2303773592  9.51E-05
    78 OT SD       0.80E-01   37.7     0.00000639     -6890.2305508767 -1.74E-04
    79 OT DIIS     0.80E-01   34.8     0.00001408     -6890.2305578307 -6.95E-06
    80 OT DIIS     0.80E-01   36.0     0.00000619     -6890.2306566445 -9.88E-05
    81 OT DIIS     0.80E-01   40.5     0.00000743     -6890.2307485881 -9.19E-05
    82 OT SD       0.80E-01   39.3     0.00000602     -6890.2307679379 -1.93E-05
    83 OT DIIS     0.80E-01   40.1     0.00001190     -6890.2307745986 -6.66E-06
    84 OT DIIS     0.80E-01   39.1     0.00000749     -6890.2308884418 -1.14E-04
    85 OT DIIS     0.80E-01   39.4     0.00000741     -6890.2308983590 -9.92E-06
    86 OT DIIS     0.80E-01   39.3     0.00000520     -6890.2309318644 -3.35E-05
    87 OT DIIS     0.80E-01   38.6     0.00000667     -6890.2310165441 -8.47E-05
    88 OT SD       0.80E-01   39.9     0.00000666     -6890.2310287898 -1.22E-05
    89 OT DIIS     0.80E-01   36.2     0.00002357     -6890.2310170373  1.18E-05
    90 OT DIIS     0.80E-01   40.4     0.00000516     -6890.2310550341 -3.80E-05
    91 OT DIIS     0.80E-01   38.6     0.00000535     -6890.2310873603 -3.23E-05
    92 OT DIIS     0.80E-01   40.1     0.00000494     -6890.2311118118 -2.45E-05
    93 OT DIIS     0.80E-01   42.8     0.00000540     -6890.2311205002 -8.69E-06
    94 OT DIIS     0.80E-01   38.4     0.00000534     -6890.2311217665 -1.27E-06
    95 OT SD       0.80E-01   40.6     0.00000658     -6890.2312108924 -8.91E-05
    96 OT DIIS     0.80E-01   42.3     0.00002504     -6890.2311931713  1.77E-05
    97 OT DIIS     0.80E-01   37.4     0.00000483     -6890.2312142804 -2.11E-05
    98 OT DIIS     0.80E-01   40.4     0.00000453     -6890.2312729450 -5.87E-05
    99 OT SD       0.80E-01   38.8     0.00000476     -6890.2313004898 -2.75E-05
   100 OT DIIS     0.80E-01   40.4     0.00001448     -6890.2312983161  2.17E-06

  Leaving inner SCF loop after reaching   100 steps.


  Electronic density on regular grids:      -2431.9999999987        0.0000000013
  Core density on regular grids:             2431.9999999988       -0.0000000012
  Total charge density on r-space grids:        0.0000000002
  Total charge density g-space grids:           0.0000000002

  Overlap energy of the core charge distribution:               0.03255767795921
  Self energy of the core charge distribution:             -16017.19408509233290
  Core Hamiltonian energy:                                   4346.62976922727012
  Hartree energy:                                            6115.41053927868234
  Exchange-correlation energy:                              -1333.02853549011570
  Dispersion energy:                                           -2.08154391757772

  Total energy:                                             -6890.23129831611277

  outer SCF iter =    2 RMS gradient =   0.14E-04 energy =      -6890.2312983161

  ----------------------------------- OT ---------------------------------------
  Minimizer      : DIIS                : direct inversion
                                         in the iterative subspace
                                         using   7 DIIS vectors
                                         safer DIIS on
  Preconditioner : FULL_SINGLE_INVERSE : inversion of 
                                         H + eS - 2*(Sc)(c^T*H*c+const)(Sc)^T
  Precond_solver : DEFAULT
  stepsize       :    0.08000000                  energy_gap     :    0.08000000
  eps_taylor     :   0.10000E-15                  max_taylor     :             4
  ----------------------------------- OT ---------------------------------------

  Step     Update method      Time    Convergence         Total energy    Change
  ------------------------------------------------------------------------------
     1 OT DIIS     0.80E-01   91.9     0.00000525     -6890.2313112412 -1.29E-05
     2 OT DIIS     0.80E-01   35.8     0.00001467     -6890.2313135310 -2.29E-06
     3 OT DIIS     0.80E-01   39.2     0.00000504     -6890.2313220899 -8.56E-06
     4 OT DIIS     0.80E-01   37.8     0.00000440     -6890.2313252955 -3.21E-06
     5 OT DIIS     0.80E-01   41.0     0.00000473     -6890.2313328890 -7.59E-06
     6 OT DIIS     0.80E-01   34.4     0.00000479     -6890.2313577638 -2.49E-05
     7 OT DIIS     0.80E-01   39.1     0.00000441     -6890.2313976836 -3.99E-05
     8 OT DIIS     0.80E-01   35.0     0.00000441     -6890.2314233590 -2.57E-05
     9 OT DIIS     0.80E-01   38.8     0.00000402     -6890.2314493812 -2.60E-05
    10 OT DIIS     0.80E-01   39.2     0.00000384     -6890.2314670607 -1.77E-05
    11 OT DIIS     0.80E-01   39.2     0.00000431     -6890.2314724942 -5.43E-06
    12 OT DIIS     0.80E-01   35.1     0.00000385     -6890.2314866077 -1.41E-05
    13 OT DIIS     0.80E-01   40.0     0.00000336     -6890.2315073652 -2.08E-05
    14 OT DIIS     0.80E-01   38.8     0.00000334     -6890.2315221019 -1.47E-05
    15 OT DIIS     0.80E-01   39.8     0.00000370     -6890.2315281267 -6.02E-06
    16 OT DIIS     0.80E-01   42.3     0.00000358     -6890.2315389945 -1.09E-05
    17 OT DIIS     0.80E-01   38.9     0.00000324     -6890.2315466596 -7.67E-06
    18 OT DIIS     0.80E-01   39.6     0.00000344     -6890.2315463997  2.60E-07
    19 OT DIIS     0.80E-01   34.6     0.00000349     -6890.2315640642 -1.77E-05
    20 OT SD       0.80E-01   38.5     0.00000345     -6890.2315684814 -4.42E-06
    21 OT DIIS     0.80E-01   40.5     0.00001276     -6890.2315664615  2.02E-06
    22 OT DIIS     0.80E-01   37.1     0.00000316     -6890.2315774716 -1.10E-05
    23 OT DIIS     0.80E-01   37.9     0.00000323     -6890.2315888896 -1.14E-05
    24 OT SD       0.80E-01   40.2     0.00000324     -6890.2315924799 -3.59E-06
    25 OT DIIS     0.80E-01   38.8     0.00001171     -6890.2315908370  1.64E-06
    26 OT DIIS     0.80E-01   40.7     0.00000324     -6890.2316168174 -2.60E-05
    27 OT SD       0.80E-01   39.0     0.00000271     -6890.2316542402 -3.74E-05
    28 OT SD       0.80E-01   37.9     0.00000522     -6890.2316556804 -1.44E-06
    29 OT DIIS     0.80E-01   30.9     0.00002169     -6890.2316397545  1.59E-05
    30 OT DIIS     0.80E-01   39.5     0.00000238     -6890.2316682144 -2.85E-05
    31 OT SD       0.80E-01   41.2     0.00000238     -6890.2316771289 -8.91E-06
    32 OT DIIS     0.80E-01   38.5     0.00000557     -6890.2316782398 -1.11E-06
    33 OT DIIS     0.80E-01   41.0     0.00000265     -6890.2317067354 -2.85E-05
    34 OT SD       0.80E-01   41.0     0.00000281     -6890.2317179462 -1.12E-05
    35 OT DIIS     0.80E-01   38.8     0.00000970     -6890.2317164133  1.53E-06
    36 OT DIIS     0.80E-01   41.0     0.00000227     -6890.2317188772 -2.46E-06
    37 OT DIIS     0.80E-01   40.9     0.00000232     -6890.2317369879 -1.81E-05
    38 OT SD       0.80E-01   39.5     0.00000224     -6890.2317418767 -4.89E-06
    39 OT DIIS     0.80E-01   42.8     0.00000588     -6890.2317423242 -4.48E-07
    40 OT DIIS     0.80E-01   41.1     0.00000216     -6890.2317525668 -1.02E-05
    41 OT SD       0.80E-01   40.9     0.00000201     -6890.2317568167 -4.25E-06
    42 OT DIIS     0.80E-01   42.2     0.00000546     -6890.2317572787 -4.62E-07
    43 OT DIIS     0.80E-01   40.7     0.00000229     -6890.2317758415 -1.86E-05
    44 OT DIIS     0.80E-01   43.3     0.00000215     -6890.2317856610 -9.82E-06
    45 OT SD       0.80E-01   40.6     0.00000213     -6890.2317867490 -1.09E-06
    46 OT SD       0.80E-01   43.1     0.00000346     -6890.2317876026 -8.54E-07
    47 OT DIIS     0.80E-01   40.3     0.00001206     -6890.2317830639  4.54E-06
    48 OT SD       0.80E-01   37.2     0.00000176     -6890.2317887192 -5.66E-06
    49 OT DIIS     0.80E-01   41.2     0.00000471     -6890.2317892042 -4.85E-07
    50 OT DIIS     0.80E-01   39.5     0.00000169     -6890.2317909636 -1.76E-06
    51 OT DIIS     0.80E-01   40.9     0.00000174     -6890.2317917230 -7.59E-07
    52 OT SD       0.80E-01   39.2     0.00000186     -6890.2317955005 -3.78E-06
    53 OT DIIS     0.80E-01   36.7     0.00000690     -6890.2317949253  5.75E-07
    54 OT DIIS     0.80E-01   43.3     0.00000176     -6890.2318029344 -8.01E-06
    55 OT DIIS     0.80E-01   38.5     0.00000149     -6890.2318068957 -3.96E-06
    56 OT DIIS     0.80E-01   40.0     0.00000147     -6890.2318072181 -3.22E-07
    57 OT DIIS     0.80E-01   41.9     0.00000134     -6890.2318117044 -4.49E-06
    58 OT DIIS     0.80E-01   41.3     0.00000156     -6890.2318131387 -1.43E-06
    59 OT DIIS     0.80E-01   40.5     0.00000128     -6890.2318153974 -2.26E-06
    60 OT DIIS     0.80E-01   43.5     0.00000138     -6890.2318160485 -6.51E-07
    61 OT DIIS     0.80E-01   38.3     0.00000124     -6890.2318214013 -5.35E-06
    62 OT DIIS     0.80E-01   35.9     0.00000132     -6890.2318229303 -1.53E-06
    63 OT DIIS     0.80E-01   41.1     0.00000138     -6890.2318240367 -1.11E-06
    64 OT DIIS     0.80E-01   39.3     0.00000119     -6890.2318282397 -4.20E-06
    65 OT DIIS     0.80E-01   42.0     0.00000128     -6890.2318286632 -4.23E-07
    66 OT DIIS     0.80E-01   40.6     0.00000119     -6890.2318317033 -3.04E-06
    67 OT DIIS     0.80E-01   43.8     0.00000128     -6890.2318325279 -8.25E-07
    68 OT SD       0.80E-01   37.7     0.00000114     -6890.2318360882 -3.56E-06
    69 OT DIIS     0.80E-01   36.6     0.00000192     -6890.2318365672 -4.79E-07
    70 OT DIIS     0.80E-01   42.0     0.00000111     -6890.2318393656 -2.80E-06
    71 OT DIIS     0.80E-01   36.4     0.00000112     -6890.2318410662 -1.70E-06
    72 OT DIIS     0.80E-01   40.1     0.00000123     -6890.2318415158 -4.50E-07
    73 OT DIIS     0.80E-01   42.6     0.00000112     -6890.2318452888 -3.77E-06
    74 OT DIIS     0.80E-01   41.1     0.00000109     -6890.2318472222 -1.93E-06
    75 OT SD       0.80E-01   38.9     0.00000113     -6890.2318476146 -3.92E-07
    76 OT DIIS     0.80E-01   39.8     0.00000264     -6890.2318479266 -3.12E-07
    77 OT SD       0.80E-01   44.3     0.00000109     -6890.2318514020 -3.48E-06
    78 OT DIIS     0.80E-01   40.4     0.00000233     -6890.2318517632 -3.61E-07
    79 OT DIIS     0.80E-01   38.4     0.00000106     -6890.2318557724 -4.01E-06
    80 OT DIIS     0.80E-01   37.3     0.00000104     -6890.2318586061 -2.83E-06
    81 OT SD       0.80E-01   38.5     0.00000104     -6890.2318589207 -3.15E-07
    82 OT DIIS     0.80E-01   41.5     0.00000176     -6890.2318593353 -4.15E-07
    83 OT DIIS     0.80E-01   41.4     0.00000103     -6890.2318623750 -3.04E-06
    84 OT DIIS     0.80E-01   37.5     0.00000102     -6890.2318650095 -2.63E-06
    85 OT DIIS     0.80E-01   36.9     0.00000104     -6890.2318683521 -3.34E-06
    86 OT SD       0.80E-01   40.3     0.00000102     -6890.2318717564 -3.40E-06
    87 OT SD       0.80E-01   40.0     0.00000167     -6890.2318721589 -4.02E-07
    88 OT DIIS     0.80E-01   40.1     0.00000809     -6890.2318704380  1.72E-06
    89 OT DIIS     0.80E-01   39.2     0.00000102     -6890.2318745371 -4.10E-06
    90 OT DIIS     0.80E-01   40.6     0.00000103     -6890.2318787022 -4.17E-06
    91 OT SD       0.80E-01   42.8     0.00000107     -6890.2318808137 -2.11E-06
    92 OT DIIS     0.80E-01   40.5     0.00000286     -6890.2318810101 -1.96E-07
    93 OT SD       0.80E-01   40.9     0.00000117     -6890.2318920019 -1.10E-05
    94 OT SD       0.80E-01   39.9     0.00000280     -6890.2318921858 -1.84E-07
    95 OT DIIS     0.80E-01   40.6     0.00001461     -6890.2318852351  6.95E-06
    96 OT DIIS     0.80E-01   35.5     0.00000103     -6890.2318916462 -6.41E-06
    97 OT DIIS     0.80E-01   32.1     0.00000102     -6890.2318950319 -3.39E-06
    98 OT SD       0.80E-01   33.0     0.00000098     -6890.2318972332 -2.20E-06

  *** SCF run converged in    98 steps ***


  Electronic density on regular grids:      -2431.9999999987        0.0000000013
  Core density on regular grids:             2431.9999999988       -0.0000000012
  Total charge density on r-space grids:        0.0000000002
  Total charge density g-space grids:           0.0000000002

  Overlap energy of the core charge distribution:               0.03255767795921
  Self energy of the core charge distribution:             -16017.19408509233290
  Core Hamiltonian energy:                                   4346.63463098929151
  Hartree energy:                                            6115.40697601305328
  Exchange-correlation energy:                              -1333.03043290356050
  Dispersion energy:                                           -2.08154391757772

  Total energy:                                             -6890.23189723316773

  outer SCF iter =    3 RMS gradient =   0.98E-06 energy =      -6890.2318972332
  outer SCF loop converged in   3 iterations or  298 steps


 ENERGY| Total FORCE_EVAL ( QS ) energy [hartree]          -6890.231897564065548

 Number of electrons:                                                       2432
 Number of occupied orbitals:                                               1216
 Number of molecular orbitals:                                              1216

 Number of orbital functions:                                               4983
 Number of independent orbital functions:                                   4983

 Extrapolation method: ASPC


 SCF WAVEFUNCTION OPTIMIZATION

  ----------------------------------- OT ---------------------------------------
  Minimizer      : DIIS                : direct inversion
                                         in the iterative subspace
                                         using   7 DIIS vectors
                                         safer DIIS on
  Preconditioner : FULL_SINGLE_INVERSE : inversion of 
                                         H + eS - 2*(Sc)(c^T*H*c+const)(Sc)^T
  Precond_solver : DEFAULT
  stepsize       :    0.08000000                  energy_gap     :    0.08000000
  eps_taylor     :   0.10000E-15                  max_taylor     :             4
  ----------------------------------- OT ---------------------------------------

  Step     Update method      Time    Convergence         Total energy    Change
  ------------------------------------------------------------------------------
     1 OT DIIS     0.80E-01   35.3     0.00579903     -6877.1296831347 -6.88E+03
     2 OT DIIS     0.80E-01   40.5     0.00494667     -6891.1507174937 -1.40E+01
     3 OT DIIS     0.80E-01   41.6     0.00395593     -6899.2700761838 -8.12E+00
     4 OT DIIS     0.80E-01   41.3     0.00243977     -6904.6584114172 -5.39E+00
     5 OT DIIS     0.80E-01   40.7     0.00211037     -6906.0011669355 -1.34E+00
     6 OT DIIS     0.80E-01   42.8     0.00194538     -6906.5237489600 -5.23E-01
     7 OT DIIS     0.80E-01   39.5     0.00114219     -6906.8918421156 -3.68E-01
     8 OT DIIS     0.80E-01   41.6     0.00073154     -6907.1157155029 -2.24E-01
     9 OT DIIS     0.80E-01   37.4     0.00069848     -6907.2664510186 -1.51E-01
    10 OT DIIS     0.80E-01   39.3     0.00049789     -6907.3697370871 -1.03E-01
    11 OT DIIS     0.80E-01   39.5     0.00043207     -6907.4497059558 -8.00E-02
    12 OT DIIS     0.80E-01   35.4     0.00036520     -6907.5080661604 -5.84E-02
    13 OT DIIS     0.80E-01   32.0     0.00031889     -6907.5766649922 -6.86E-02
    14 OT DIIS     0.80E-01   39.2     0.00031273     -6907.6326226587 -5.60E-02
    15 OT DIIS     0.80E-01   39.8     0.00026225     -6907.6984838076 -6.59E-02
    16 OT DIIS     0.80E-01   37.1     0.00027177     -6907.7197414066 -2.13E-02
    17 OT DIIS     0.80E-01   40.9     0.00023847     -6907.7427329529 -2.30E-02
    18 OT DIIS     0.80E-01   42.3     0.00019784     -6907.7812641004 -3.85E-02
    19 OT DIIS     0.80E-01   41.1     0.00020711     -6907.8073241076 -2.61E-02
    20 OT DIIS     0.80E-01   40.1     0.00018997     -6907.8218643820 -1.45E-02
    21 OT DIIS     0.80E-01   41.3     0.00015945     -6907.8449869921 -2.31E-02
    22 OT DIIS     0.80E-01   42.0     0.00014490     -6907.8589020588 -1.39E-02
    23 OT DIIS     0.80E-01   30.4     0.00014366     -6907.8877158139 -2.88E-02
    24 OT DIIS     0.80E-01   37.5     0.00015700     -6907.9025830767 -1.49E-02
    25 OT DIIS     0.80E-01   40.5     0.00013796     -6907.9112611497 -8.68E-03
    26 OT DIIS     0.80E-01   37.5     0.00012020     -6907.9207848507 -9.52E-03
    27 OT DIIS     0.80E-01   31.6     0.00010894     -6907.9271716089 -6.39E-03
    28 OT DIIS     0.80E-01   37.7     0.00010978     -6907.9349090586 -7.74E-03
    29 OT DIIS     0.80E-01   31.4     0.00008424     -6907.9458553497 -1.09E-02
    30 OT DIIS     0.80E-01   33.0     0.00007996     -6907.9539545504 -8.10E-03
    31 OT DIIS     0.80E-01   39.4     0.00007547     -6907.9565929795 -2.64E-03
    32 OT DIIS     0.80E-01   43.7     0.00006846     -6907.9594612235 -2.87E-03
    33 OT DIIS     0.80E-01   36.4     0.00007449     -6907.9629025865 -3.44E-03
    34 OT DIIS     0.80E-01   37.5     0.00005780     -6907.9663134226 -3.41E-03
    35 OT DIIS     0.80E-01   43.3     0.00005986     -6907.9692038650 -2.89E-03
    36 OT DIIS     0.80E-01   35.2     0.00005535     -6907.9714746742 -2.27E-03
    37 OT DIIS     0.80E-01   38.7     0.00005024     -6907.9749249715 -3.45E-03
    38 OT DIIS     0.80E-01   42.0     0.00004789     -6907.9768647531 -1.94E-03
    39 OT DIIS     0.80E-01   37.5     0.00004631     -6907.9786697955 -1.81E-03
    40 OT DIIS     0.80E-01   40.0     0.00004387     -6907.9806559466 -1.99E-03
    41 OT DIIS     0.80E-01   41.4     0.00004368     -6907.9829757687 -2.32E-03
    42 OT DIIS     0.80E-01   36.2     0.00004340     -6907.9852590560 -2.28E-03
    43 OT DIIS     0.80E-01   37.1     0.00004395     -6907.9858653098 -6.06E-04
    44 OT DIIS     0.80E-01   41.5     0.00004167     -6907.9874893043 -1.62E-03
    45 OT DIIS     0.80E-01   38.0     0.00004058     -6907.9889553789 -1.47E-03
    46 OT DIIS     0.80E-01   42.9     0.00004109     -6907.9903727939 -1.42E-03
    47 OT DIIS     0.80E-01   42.4     0.00004054     -6907.9914336129 -1.06E-03
    48 OT DIIS     0.80E-01   39.2     0.00003998     -6907.9934866530 -2.05E-03
    49 OT DIIS     0.80E-01   40.9     0.00003996     -6907.9951370354 -1.65E-03
    50 OT DIIS     0.80E-01   39.6     0.00003939     -6907.9963905970 -1.25E-03
    51 OT DIIS     0.80E-01   40.8     0.00003984     -6907.9972355021 -8.45E-04
    52 OT DIIS     0.80E-01   34.5     0.00003958     -6908.0002464338 -3.01E-03
    53 OT DIIS     0.80E-01   33.2     0.00004022     -6908.0029663254 -2.72E-03
    54 OT DIIS     0.80E-01   33.9     0.00003983     -6908.0048690117 -1.90E-03
    55 OT DIIS     0.80E-01   29.8     0.00004007     -6908.0059487937 -1.08E-03
    56 OT DIIS     0.80E-01   41.9     0.00003929     -6908.0070229955 -1.07E-03
    57 OT DIIS     0.80E-01   40.6     0.00004089     -6908.0125838156 -5.56E-03
    58 OT DIIS     0.80E-01   41.1     0.00003877     -6908.0167318603 -4.15E-03
    59 OT DIIS     0.80E-01   39.6     0.00004206     -6908.0190622202 -2.33E-03
    60 OT DIIS     0.80E-01   40.4     0.00008127     -6908.0238358136 -4.77E-03
    61 OT DIIS     0.80E-01   37.3     0.00004097     -6908.0223601122  1.48E-03
    62 OT DIIS     0.80E-01   42.0     0.00004938     -6908.0229509823 -5.91E-04
    63 OT DIIS     0.80E-01   40.9     0.00007418     -6908.0247614355 -1.81E-03
    64 OT DIIS     0.80E-01   40.4     0.00005280     -6908.0300294838 -5.27E-03
    65 OT DIIS     0.80E-01   40.1     0.00003814     -6908.0308790306 -8.50E-04
    66 OT DIIS     0.80E-01   40.4     0.00003323     -6908.0317560543 -8.77E-04
    67 OT SD       0.80E-01   41.9     0.00003097     -6908.0338001914 -2.04E-03
    68 OT DIIS     0.80E-01   40.4     0.00003946     -6908.0341356765 -3.35E-04
    69 OT DIIS     0.80E-01   41.3     0.00003149     -6908.0367147533 -2.58E-03
    70 OT DIIS     0.80E-01   35.2     0.00003250     -6908.0389021003 -2.19E-03
    71 OT SD       0.80E-01   39.6     0.00003659     -6908.0402970838 -1.39E-03
    72 OT SD       0.80E-01   41.7     0.00003261     -6908.0406843650 -3.87E-04
    73 OT DIIS     0.80E-01   38.7     0.00005067     -6908.0408708521 -1.86E-04
    74 OT DIIS     0.80E-01   42.5     0.00002935     -6908.0418928447 -1.02E-03
    75 OT DIIS     0.80E-01   40.8     0.00002612     -6908.0424313181 -5.38E-04
    76 OT DIIS     0.80E-01   40.4     0.00002909     -6908.0441957812 -1.76E-03
    77 OT DIIS     0.80E-01   41.2     0.00002375     -6908.0446634785 -4.68E-04
    78 OT DIIS     0.80E-01   39.0     0.00002361     -6908.0459694684 -1.31E-03
    79 OT DIIS     0.80E-01   40.0     0.00002214     -6908.0467970769 -8.28E-04
    80 OT DIIS     0.80E-01   39.6     0.00002445     -6908.0478429693 -1.05E-03
    81 OT DIIS     0.80E-01   35.9     0.00001955     -6908.0482379695 -3.95E-04
    82 OT DIIS     0.80E-01   40.7     0.00001874     -6908.0487195597 -4.82E-04
    83 OT DIIS     0.80E-01   37.7     0.00001889     -6908.0494707095 -7.51E-04
    84 OT DIIS     0.80E-01   40.4     0.00001970     -6908.0501307573 -6.60E-04
    85 OT DIIS     0.80E-01   40.8     0.00001927     -6908.0507591587 -6.28E-04
    86 OT DIIS     0.80E-01   38.6     0.00001823     -6908.0512842892 -5.25E-04
    87 OT DIIS     0.80E-01   32.5     0.00001774     -6908.0517431543 -4.59E-04
    88 OT DIIS     0.80E-01   32.5     0.00001845     -6908.0517676229 -2.45E-05
    89 OT DIIS     0.80E-01   35.8     0.00001748     -6908.0527997761 -1.03E-03
    90 OT DIIS     0.80E-01   29.8     0.00001785     -6908.0535027425 -7.03E-04
    91 OT DIIS     0.80E-01   33.2     0.00001831     -6908.0543651098 -8.62E-04
    92 OT DIIS     0.80E-01   32.8     0.00001719     -6908.0544890000 -1.24E-04
    93 OT DIIS     0.80E-01   35.9     0.00001775     -6908.0548887586 -4.00E-04
    94 OT DIIS     0.80E-01   47.7     0.00001568     -6908.0558296936 -9.41E-04
    95 OT DIIS     0.80E-01   39.9     0.00001608     -6908.0566068004 -7.77E-04
    96 OT DIIS     0.80E-01   39.2     0.00001968     -6908.0572421321 -6.35E-04
    97 OT DIIS     0.80E-01   43.8     0.00001738     -6908.0577004045 -4.58E-04
    98 OT DIIS     0.80E-01   36.6     0.00001548     -6908.0581451278 -4.45E-04
    99 OT SD       0.80E-01   38.9     0.00001655     -6908.0587142609 -5.69E-04
   100 OT DIIS     0.80E-01   41.8     0.00002222     -6908.0587865243 -7.23E-05

  Leaving inner SCF loop after reaching   100 steps.


  Electronic density on regular grids:      -2432.0000000062       -0.0000000062
  Core density on regular grids:             2431.9999999988       -0.0000000012
  Total charge density on r-space grids:       -0.0000000073
  Total charge density g-space grids:          -0.0000000073

  Overlap energy of the core charge distribution:               0.05596987136158
  Self energy of the core charge distribution:             -16017.19408509233290
  Core Hamiltonian energy:                                   4306.64873234747301
  Hartree energy:                                            6133.96543746151838
  Exchange-correlation energy:                              -1329.45439968389041
  Dispersion energy:                                           -2.08044142845275

  Total energy:                                             -6908.05878652432148

  outer SCF iter =    1 RMS gradient =   0.22E-04 energy =      -6908.0587865243

  ----------------------------------- OT ---------------------------------------
  Minimizer      : DIIS                : direct inversion
                                         in the iterative subspace
                                         using   7 DIIS vectors
                                         safer DIIS on
  Preconditioner : FULL_SINGLE_INVERSE : inversion of 
                                         H + eS - 2*(Sc)(c^T*H*c+const)(Sc)^T
  Precond_solver : DEFAULT
  stepsize       :    0.08000000                  energy_gap     :    0.08000000
  eps_taylor     :   0.10000E-15                  max_taylor     :             4
  ----------------------------------- OT ---------------------------------------

  Step     Update method      Time    Convergence         Total energy    Change
  ------------------------------------------------------------------------------
     1 OT DIIS     0.80E-01   87.3     0.00005678     -6908.0590334880 -2.47E-04
     2 OT DIIS     0.80E-01   36.0     0.00004562     -6908.0603557670 -1.32E-03
     3 OT DIIS     0.80E-01   35.8     0.00005595     -6908.0611900575 -8.34E-04
     4 OT DIIS     0.80E-01   37.8     0.00006109     -6908.0620410200 -8.51E-04
     5 OT DIIS     0.80E-01   36.4     0.00003091     -6908.0624907125 -4.50E-04
     6 OT DIIS     0.80E-01   37.6     0.00002827     -6908.0627364390 -2.46E-04
     7 OT DIIS     0.80E-01   39.7     0.00002647     -6908.0629718134 -2.35E-04
     8 OT DIIS     0.80E-01   37.2     0.00002631     -6908.0633085762 -3.37E-04
     9 OT DIIS     0.80E-01   40.7     0.00002395     -6908.0634446669 -1.36E-04
    10 OT DIIS     0.80E-01   40.5     0.00002191     -6908.0639670969 -5.22E-04
    11 OT DIIS     0.80E-01   34.5     0.00002139     -6908.0643473328 -3.80E-04
    12 OT DIIS     0.80E-01   40.3     0.00002072     -6908.0645892689 -2.42E-04
    13 OT DIIS     0.80E-01   40.2     0.00002149     -6908.0647967728 -2.08E-04
    14 OT DIIS     0.80E-01   40.6     0.00001754     -6908.0650374628 -2.41E-04
    15 OT DIIS     0.80E-01   43.6     0.00001620     -6908.0652837806 -2.46E-04
    16 OT DIIS     0.80E-01   37.4     0.00001836     -6908.0655833302 -3.00E-04
    17 OT DIIS     0.80E-01   35.0     0.00001639     -6908.0658321692 -2.49E-04
    18 OT DIIS     0.80E-01   39.4     0.00001388     -6908.0660032613 -1.71E-04
    19 OT DIIS     0.80E-01   41.8     0.00001481     -6908.0661876623 -1.84E-04
    20 OT DIIS     0.80E-01   40.0     0.00001593     -6908.0664050527 -2.17E-04
    21 OT DIIS     0.80E-01   38.6     0.00001617     -6908.0666023709 -1.97E-04
    22 OT DIIS     0.80E-01   39.9     0.00001385     -6908.0667318957 -1.30E-04
    23 OT DIIS     0.80E-01   40.6     0.00001578     -6908.0668134300 -8.15E-05
    24 OT SD       0.80E-01   35.6     0.00001360     -6908.0668123094  1.12E-06
    25 OT DIIS     0.80E-01   42.2     0.00003898     -6908.0668075379  4.77E-06
    26 OT DIIS     0.80E-01   39.9     0.00001184     -6908.0670165634 -2.09E-04
    27 OT DIIS     0.80E-01   39.4     0.00001242     -6908.0670978597 -8.13E-05
    28 OT DIIS     0.80E-01   36.8     0.00001419     -6908.0672134060 -1.16E-04
    29 OT DIIS     0.80E-01   39.1     0.00001251     -6908.0673347308 -1.21E-04
    30 OT SD       0.80E-01   40.6     0.00001255     -6908.0674053508 -7.06E-05
    31 OT DIIS     0.80E-01   39.7     0.00003278     -6908.0673865278  1.88E-05
    32 OT DIIS     0.80E-01   39.9     0.00001189     -6908.0675208369 -1.34E-04
    33 OT DIIS     0.80E-01   44.4     0.00000775     -6908.0675470871 -2.63E-05
    34 OT DIIS     0.80E-01   38.2     0.00000767     -6908.0676019142 -5.48E-05
    35 OT DIIS     0.80E-01   40.6     0.00000763     -6908.0676765054 -7.46E-05
    36 OT DIIS     0.80E-01   43.8     0.00000671     -6908.0676942297 -1.77E-05
    37 OT DIIS     0.80E-01   37.3     0.00000702     -6908.0677276547 -3.34E-05
    38 OT DIIS     0.80E-01   35.0     0.00000643     -6908.0677306150 -2.96E-06
    39 OT DIIS     0.80E-01   30.6     0.00000966     -6908.0677359172 -5.30E-06
    40 OT DIIS     0.80E-01   27.9     0.00000537     -6908.0677674344 -3.15E-05
    41 OT DIIS     0.80E-01   32.1     0.00000629     -6908.0678049861 -3.76E-05
    42 OT DIIS     0.80E-01   39.0     0.00000552     -6908.0678540009 -4.90E-05
    43 OT SD       0.80E-01   41.8     0.00000594     -6908.0678692906 -1.53E-05
    44 OT DIIS     0.80E-01   38.1     0.00002044     -6908.0678608607  8.43E-06
    45 OT DIIS     0.80E-01   41.4     0.00000417     -6908.0678972377 -3.64E-05
    46 OT DIIS     0.80E-01   41.6     0.00000436     -6908.0679104237 -1.32E-05
    47 OT DIIS     0.80E-01   40.3     0.00000428     -6908.0679270059 -1.66E-05
    48 OT DIIS     0.80E-01   40.0     0.00000388     -6908.0679485964 -2.16E-05
    49 OT DIIS     0.80E-01   37.2     0.00000356     -6908.0679601574 -1.16E-05
    50 OT DIIS     0.80E-01   42.0     0.00000350     -6908.0679736251 -1.35E-05
    51 OT DIIS     0.80E-01   36.6     0.00000354     -6908.0679854679 -1.18E-05
    52 OT DIIS     0.80E-01   40.6     0.00000401     -6908.0680010109 -1.55E-05
    53 OT DIIS     0.80E-01   41.4     0.00000344     -6908.0680083686 -7.36E-06
    54 OT DIIS     0.80E-01   36.6     0.00000325     -6908.0680222833 -1.39E-05
    55 OT DIIS     0.80E-01   35.7     0.00000301     -6908.0680324534 -1.02E-05
    56 OT DIIS     0.80E-01   39.4     0.00000299     -6908.0680385893 -6.14E-06
    57 OT DIIS     0.80E-01   40.0     0.00000300     -6908.0680472136 -8.62E-06
    58 OT DIIS     0.80E-01   40.3     0.00000298     -6908.0680580870 -1.09E-05
    59 OT DIIS     0.80E-01   40.3     0.00000290     -6908.0680721570 -1.41E-05
    60 OT DIIS     0.80E-01   41.4     0.00000294     -6908.0680864921 -1.43E-05
    61 OT DIIS     0.80E-01   36.3     0.00000268     -6908.0680895286 -3.04E-06
    62 OT DIIS     0.80E-01   37.8     0.00000260     -6908.0680980940 -8.57E-06
    63 OT DIIS     0.80E-01   36.9     0.00000288     -6908.0681061423 -8.05E-06
    64 OT DIIS     0.80E-01   41.5     0.00000271     -6908.0681165303 -1.04E-05
    65 OT DIIS     0.80E-01   40.3     0.00000268     -6908.0681243715 -7.84E-06
    66 OT DIIS     0.80E-01   39.8     0.00000238     -6908.0681418278 -1.75E-05
    67 OT DIIS     0.80E-01   41.8     0.00000231     -6908.0681471438 -5.32E-06
    68 OT DIIS     0.80E-01   35.3     0.00000279     -6908.0681548793 -7.74E-06
    69 OT DIIS     0.80E-01   40.9     0.00000233     -6908.0681661940 -1.13E-05
    70 OT DIIS     0.80E-01   43.1     0.00000251     -6908.0681775831 -1.14E-05
    71 OT DIIS     0.80E-01   34.5     0.00000285     -6908.0681875564 -9.97E-06
    72 OT DIIS     0.80E-01   40.6     0.00000217     -6908.0681925954 -5.04E-06
    73 OT DIIS     0.80E-01   30.7     0.00000205     -6908.0681971357 -4.54E-06
    74 OT DIIS     0.80E-01   37.4     0.00000212     -6908.0682027915 -5.66E-06
    75 OT DIIS     0.80E-01   31.9     0.00000233     -6908.0682071657 -4.37E-06
    76 OT DIIS     0.80E-01   39.1     0.00000228     -6908.0682116052 -4.44E-06
    77 OT DIIS     0.80E-01   32.7     0.00000192     -6908.0682117247 -1.20E-07
    78 OT DIIS     0.80E-01   37.3     0.00000229     -6908.0682253660 -1.36E-05
    79 OT SD       0.80E-01   34.4     0.00000190     -6908.0682344938 -9.13E-06
    80 OT DIIS     0.80E-01   32.5     0.00000382     -6908.0682353259 -8.32E-07
    81 OT DIIS     0.80E-01   31.2     0.00000200     -6908.0682383869 -3.06E-06
    82 OT DIIS     0.80E-01   43.2     0.00000200     -6908.0682412116 -2.82E-06
    83 OT SD       0.80E-01   38.7     0.00000164     -6908.0682446844 -3.47E-06
    84 OT DIIS     0.80E-01   35.5     0.00000237     -6908.0682457199 -1.04E-06
    85 OT DIIS     0.80E-01   42.4     0.00000158     -6908.0682551573 -9.44E-06
    86 OT DIIS     0.80E-01   36.4     0.00000156     -6908.0682611786 -6.02E-06
    87 OT DIIS     0.80E-01   41.1     0.00000170     -6908.0682614189 -2.40E-07
    88 OT DIIS     0.80E-01   42.5     0.00000174     -6908.0682669577 -5.54E-06
    89 OT DIIS     0.80E-01   37.4     0.00000163     -6908.0682693841 -2.43E-06
    90 OT DIIS     0.80E-01   28.9     0.00000151     -6908.0682736686 -4.28E-06
    91 OT DIIS     0.80E-01   35.7     0.00000148     -6908.0682805848 -6.92E-06
    92 OT SD       0.80E-01   38.1     0.00000156     -6908.0682861189 -5.53E-06
    93 OT DIIS     0.80E-01   41.8     0.00000395     -6908.0682864521 -3.33E-07
    94 OT DIIS     0.80E-01   35.2     0.00000141     -6908.0682888636 -2.41E-06
    95 OT DIIS     0.80E-01   41.2     0.00000139     -6908.0682961869 -7.32E-06
    96 OT DIIS     0.80E-01   36.3     0.00000135     -6908.0682996759 -3.49E-06
    97 OT DIIS     0.80E-01   38.7     0.00000138     -6908.0683060017 -6.33E-06
    98 OT DIIS     0.80E-01   39.5     0.00000139     -6908.0683100869 -4.09E-06
    99 OT DIIS     0.80E-01   37.8     0.00000143     -6908.0683109649 -8.78E-07
   100 OT DIIS     0.80E-01   33.6     0.00000128     -6908.0683165423 -5.58E-06

  Leaving inner SCF loop after reaching   100 steps.


  Electronic density on regular grids:      -2432.0000000062       -0.0000000062
  Core density on regular grids:             2431.9999999988       -0.0000000012
  Total charge density on r-space grids:       -0.0000000073
  Total charge density g-space grids:          -0.0000000073

  Overlap energy of the core charge distribution:               0.05596987136158
  Self energy of the core charge distribution:             -16017.19408509233290
  Core Hamiltonian energy:                                   4306.55278504569833
  Hartree energy:                                            6134.04106892527125
  Exchange-correlation energy:                              -1329.44361386380683
  Dispersion energy:                                           -2.08044142845275

  Total energy:                                             -6908.06831654226062

  outer SCF iter =    2 RMS gradient =   0.13E-05 energy =      -6908.0683165423

  ----------------------------------- OT ---------------------------------------
  Minimizer      : DIIS                : direct inversion
                                         in the iterative subspace
                                         using   7 DIIS vectors
                                         safer DIIS on
  Preconditioner : FULL_SINGLE_INVERSE : inversion of 
                                         H + eS - 2*(Sc)(c^T*H*c+const)(Sc)^T
  Precond_solver : DEFAULT
  stepsize       :    0.08000000                  energy_gap     :    0.08000000
  eps_taylor     :   0.10000E-15                  max_taylor     :             4
  ----------------------------------- OT ---------------------------------------

  Step     Update method      Time    Convergence         Total energy    Change
  ------------------------------------------------------------------------------
     1 OT DIIS     0.80E-01   73.6     0.00000133     -6908.0683199869 -3.44E-06
     2 OT DIIS     0.80E-01   40.6     0.00000297     -6908.0683204072 -4.20E-07
     3 OT DIIS     0.80E-01   39.2     0.00000121     -6908.0683208169 -4.10E-07
     4 OT DIIS     0.80E-01   37.5     0.00000120     -6908.0683211950 -3.78E-07
     5 OT DIIS     0.80E-01   39.9     0.00000123     -6908.0683221304 -9.35E-07
     6 OT DIIS     0.80E-01   40.4     0.00000129     -6908.0683247691 -2.64E-06
     7 OT DIIS     0.80E-01   39.8     0.00000116     -6908.0683289967 -4.23E-06
     8 OT DIIS     0.80E-01   38.7     0.00000109     -6908.0683314858 -2.49E-06
     9 OT DIIS     0.80E-01   37.0     0.00000113     -6908.0683328129 -1.33E-06
    10 OT DIIS     0.80E-01   30.4     0.00000106     -6908.0683339949 -1.18E-06
    11 OT DIIS     0.80E-01   36.1     0.00000106     -6908.0683352265 -1.23E-06
    12 OT DIIS     0.80E-01   39.8     0.00000106     -6908.0683370064 -1.78E-06
    13 OT DIIS     0.80E-01   40.4     0.00000105     -6908.0683389355 -1.93E-06
    14 OT DIIS     0.80E-01   40.8     0.00000103     -6908.0683408107 -1.88E-06
    15 OT DIIS     0.80E-01   39.3     0.00000101     -6908.0683424530 -1.64E-06
    16 OT DIIS     0.80E-01   40.4     0.00000102     -6908.0683438892 -1.44E-06
    17 OT DIIS     0.80E-01   39.5     0.00000102     -6908.0683451435 -1.25E-06
    18 OT DIIS     0.80E-01   41.5     0.00000101     -6908.0683472691 -2.13E-06
    19 OT DIIS     0.80E-01   37.5     0.00000102     -6908.0683491829 -1.91E-06
    20 OT DIIS     0.80E-01   36.9     0.00000100     -6908.0683509640 -1.78E-06

  *** SCF run converged in    20 steps ***


  Electronic density on regular grids:      -2432.0000000062       -0.0000000062
  Core density on regular grids:             2431.9999999988       -0.0000000012
  Total charge density on r-space grids:       -0.0000000073
  Total charge density g-space grids:          -0.0000000073

  Overlap energy of the core charge distribution:               0.05596987136158
  Self energy of the core charge distribution:             -16017.19408509233290
  Core Hamiltonian energy:                                   4306.55294508822317
  Hartree energy:                                            6134.04090345749592
  Exchange-correlation energy:                              -1329.44364286028099
  Dispersion energy:                                           -2.08044142845275

  Total energy:                                             -6908.06835096398663

  outer SCF iter =    3 RMS gradient =   0.10E-05 energy =      -6908.0683509640
  outer SCF loop converged in   3 iterations or  220 steps


 ENERGY| Total FORCE_EVAL ( QS ) energy [hartree]          -6908.068352368795786

 OPT| **************************************************************************
 OPT| Step number                                                              1
 OPT| Optimization method                                                  LBFGS
 OPT| Total energy [hartree]                                    -6908.0683523688
 OPT| Effective energy change [hartree]                           -17.8364548047
 OPT| Decrease in energy                                                     YES
 OPT| Used time [s]                                                    20353.593
 OPT|
 OPT| Maximum step size                                             0.4724315332
 OPT| Convergence limit for maximum step size                       0.0030000000
 OPT| Maximum step size is converged                                          NO
 OPT|
 OPT| RMS step size                                                 0.1325244569
 OPT| Convergence limit for RMS step size                           0.0015000000
 OPT| RMS step size is converged                                              NO
 OPT|
 OPT| Maximum gradient                                              1.5567271702
 OPT| Convergence limit for maximum gradient                        0.0010000000
 OPT| Maximum gradient is converged                                           NO
 OPT|
 OPT| RMS gradient                                                  0.3063090523
 OPT| Convergence limit for RMS gradient                            0.0005000000
 OPT| RMS gradient is converged                                               NO
 OPT| **************************************************************************
 OPT| Estimated peak process memory after this step [MiB]                   9828

 --------------------------
 OPTIMIZATION STEP:      2
 --------------------------

 Number of electrons:                                                       2432
 Number of occupied orbitals:                                               1216
 Number of molecular orbitals:                                              1216

 Number of orbital functions:                                               4983
 Number of independent orbital functions:                                   4983

 Extrapolation method: ASPC


 SCF WAVEFUNCTION OPTIMIZATION

  ----------------------------------- OT ---------------------------------------
  Minimizer      : DIIS                : direct inversion
                                         in the iterative subspace
                                         using   7 DIIS vectors
                                         safer DIIS on
  Preconditioner : FULL_SINGLE_INVERSE : inversion of 
                                         H + eS - 2*(Sc)(c^T*H*c+const)(Sc)^T
  Precond_solver : DEFAULT
  stepsize       :    0.08000000                  energy_gap     :    0.08000000
  eps_taylor     :   0.10000E-15                  max_taylor     :             4
  ----------------------------------- OT ---------------------------------------

  Step     Update method      Time    Convergence         Total energy    Change
  ------------------------------------------------------------------------------
     1 OT DIIS     0.80E-01   36.3     0.00489973     -6901.2460720717 -6.90E+03
     2 OT DIIS     0.80E-01   40.3     0.00281354     -6908.9478718575 -7.70E+00
     3 OT DIIS     0.80E-01   32.2     0.00264936     -6911.0378010335 -2.09E+00
     4 OT DIIS     0.80E-01   33.7     0.00248404     -6912.0282730441 -9.90E-01
     5 OT DIIS     0.80E-01   43.6     0.00136316     -6912.6885306603 -6.60E-01
     6 OT DIIS     0.80E-01   37.0     0.00133246     -6912.8313791057 -1.43E-01
     7 OT DIIS     0.80E-01   40.8     0.00089685     -6912.9078501377 -7.65E-02
     8 OT DIIS     0.80E-01   42.4     0.00035042     -6912.9550265483 -4.72E-02
     9 OT DIIS     0.80E-01   39.8     0.00031372     -6912.9677157628 -1.27E-02
    10 OT DIIS     0.80E-01   41.9     0.00026997     -6912.9726048024 -4.89E-03
    11 OT DIIS     0.80E-01   41.0     0.00014954     -6912.9777751322 -5.17E-03
    12 OT DIIS     0.80E-01   41.1     0.00012268     -6912.9802085908 -2.43E-03
    13 OT DIIS     0.80E-01   40.1     0.00010496     -6912.9819053828 -1.70E-03
    14 OT DIIS     0.80E-01   36.5     0.00009550     -6912.9830464569 -1.14E-03
    15 OT DIIS     0.80E-01   33.9     0.00009581     -6912.9839368655 -8.90E-04
    16 OT DIIS     0.80E-01   39.7     0.00007387     -6912.9847235367 -7.87E-04
    17 OT DIIS     0.80E-01   38.5     0.00005448     -6912.9855084700 -7.85E-04
    18 OT DIIS     0.80E-01   40.0     0.00006805     -6912.9859531197 -4.45E-04
    19 OT DIIS     0.80E-01   38.8     0.00005392     -6912.9862830898 -3.30E-04
    20 OT DIIS     0.80E-01   41.7     0.00004615     -6912.9865786252 -2.96E-04
    21 OT DIIS     0.80E-01   35.4     0.00004374     -6912.9868278987 -2.49E-04
    22 OT DIIS     0.80E-01   40.7     0.00004224     -6912.9869769735 -1.49E-04
    23 OT DIIS     0.80E-01   35.6     0.00003950     -6912.9871448033 -1.68E-04
    24 OT DIIS     0.80E-01   29.3     0.00003495     -6912.9872380789 -9.33E-05
    25 OT DIIS     0.80E-01   39.8     0.00002612     -6912.9873541207 -1.16E-04
    26 OT DIIS     0.80E-01   40.3     0.00002817     -6912.9874791690 -1.25E-04
    27 OT DIIS     0.80E-01   38.1     0.00002516     -6912.9875452788 -6.61E-05
    28 OT DIIS     0.80E-01   40.4     0.00002273     -6912.9876296517 -8.44E-05
    29 OT DIIS     0.80E-01   39.9     0.00002163     -6912.9877267751 -9.71E-05
    30 OT DIIS     0.80E-01   38.2     0.00002177     -6912.9877932468 -6.65E-05
    31 OT DIIS     0.80E-01   41.0     0.00002072     -6912.9878925743 -9.93E-05
    32 OT DIIS     0.80E-01   40.7     0.00002048     -6912.9879512912 -5.87E-05
    33 OT DIIS     0.80E-01   36.9     0.00001832     -6912.9880187997 -6.75E-05
    34 OT DIIS     0.80E-01   41.0     0.00001829     -6912.9881045860 -8.58E-05
    35 OT DIIS     0.80E-01   39.9     0.00001771     -6912.9881428874 -3.83E-05
    36 OT DIIS     0.80E-01   40.9     0.00001709     -6912.9881829682 -4.01E-05
    37 OT DIIS     0.80E-01   42.3     0.00001673     -6912.9882233345 -4.04E-05
    38 OT DIIS     0.80E-01   41.1     0.00001664     -6912.9882418973 -1.86E-05
    39 OT SD       0.80E-01   42.2     0.00001690     -6912.9882469664 -5.07E-06
    40 OT SD       0.80E-01   40.8     0.00002214     -6912.9883735805 -1.27E-04
    41 OT DIIS     0.80E-01   41.4     0.00007497     -6912.9883103353  6.32E-05
    42 OT SD       0.80E-01   43.0     0.00001729     -6912.9881937392  1.17E-04
    43 OT SD       0.80E-01   36.8     0.00003060     -6912.9883019458 -1.08E-04
    44 OT DIIS     0.80E-01   43.5     0.00013803     -6912.9877516032  5.50E-04
    45 OT SD       0.80E-01   39.8     0.00001782     -6912.9879743067 -2.23E-04
    46 OT SD       0.80E-01   30.9     0.00004079     -6912.9880365348 -6.22E-05
    47 OT DIIS     0.80E-01   35.6     0.00018558     -6912.9868345833  1.20E-03
    48 OT DIIS     0.80E-01   43.8     0.00001620     -6912.9875974778 -7.63E-04
    49 OT DIIS     0.80E-01   41.1     0.00001851     -6912.9876103764 -1.29E-05
    50 OT SD       0.80E-01   36.5     0.00002308     -6912.9879508812 -3.41E-04
    51 OT DIIS     0.80E-01   35.9     0.00009182     -6912.9876961742  2.55E-04
    52 OT DIIS     0.80E-01   32.7     0.00001828     -6912.9878540584 -1.58E-04
    53 OT DIIS     0.80E-01   39.6     0.00002184     -6912.9879250690 -7.10E-05
    54 OT DIIS     0.80E-01   38.8     0.00001457     -6912.9880498244 -1.25E-04
    55 OT SD       0.80E-01   41.8     0.00000911     -6912.9881503534 -1.01E-04
    56 OT DIIS     0.80E-01   38.2     0.00002442     -6912.9881547000 -4.35E-06
    57 OT DIIS     0.80E-01   39.1     0.00000770     -6912.9881814491 -2.67E-05
    58 OT DIIS     0.80E-01   38.9     0.00000788     -6912.9881879454 -6.50E-06
    59 OT DIIS     0.80E-01   40.5     0.00000745     -6912.9882267981 -3.89E-05
    60 OT DIIS     0.80E-01   41.8     0.00000755     -6912.9882608714 -3.41E-05
    61 OT DIIS     0.80E-01   38.2     0.00000786     -6912.9882909852 -3.01E-05
    62 OT SD       0.80E-01   40.8     0.00000711     -6912.9883090530 -1.81E-05
    63 OT SD       0.80E-01   39.7     0.00000773     -6912.9883330403 -2.40E-05
    64 OT SD       0.80E-01   40.6     0.00001555     -6912.9883506788 -1.76E-05
    65 OT DIIS     0.80E-01   36.5     0.00007038     -6912.9881918203  1.59E-04
    66 OT SD       0.80E-01   41.3     0.00000740     -6912.9882461701 -5.43E-05
    67 OT SD       0.80E-01   36.7     0.00001477     -6912.9882617681 -1.56E-05
    68 OT DIIS     0.80E-01   40.8     0.00006524     -6912.9881225436  1.39E-04
    69 OT SD       0.80E-01   34.7     0.00000765     -6912.9882018315 -7.93E-05
    70 OT DIIS     0.80E-01   32.9     0.00002156     -6912.9882035663 -1.73E-06
    71 OT SD       0.80E-01   40.7     0.00000747     -6912.9881983721  5.19E-06
    72 OT SD       0.80E-01   39.6     0.00002175     -6912.9881968309  1.54E-06
    73 OT DIIS     0.80E-01   38.0     0.00010514     -6912.9877925028  4.04E-04
    74 OT DIIS     0.80E-01   37.0     0.00000710     -6912.9882385278 -4.46E-04
    75 OT DIIS     0.80E-01   42.0     0.00000568     -6912.9882626558 -2.41E-05
    76 OT DIIS     0.80E-01   41.6     0.00000519     -6912.9882791909 -1.65E-05
    77 OT DIIS     0.80E-01   36.9     0.00000548     -6912.9882869706 -7.78E-06
    78 OT DIIS     0.80E-01   40.5     0.00000473     -6912.9883008007 -1.38E-05
    79 OT DIIS     0.80E-01   41.6     0.00000485     -6912.9883005305  2.70E-07
    80 OT DIIS     0.80E-01   37.9     0.00000462     -6912.9883290580 -2.85E-05
    81 OT DIIS     0.80E-01   37.0     0.00000464     -6912.9883655747 -3.65E-05
    82 OT SD       0.80E-01   37.9     0.00000435     -6912.9883929555 -2.74E-05
    83 OT DIIS     0.80E-01   36.7     0.00000809     -6912.9883993265 -6.37E-06
    84 OT DIIS     0.80E-01   28.1     0.00000418     -6912.9884031570 -3.83E-06
    85 OT SD       0.80E-01   40.7     0.00000417     -6912.9884080875 -4.93E-06
    86 OT SD       0.80E-01   38.9     0.00000528     -6912.9884158948 -7.81E-06
    87 OT DIIS     0.80E-01   40.4     0.00001678     -6912.9884139399  1.95E-06
    88 OT SD       0.80E-01   42.6     0.00000422     -6912.9884068477  7.09E-06
    89 OT SD       0.80E-01   38.6     0.00000590     -6912.9884143195 -7.47E-06
    90 OT DIIS     0.80E-01   41.1     0.00002116     -6912.9884061454  8.17E-06
    91 OT SD       0.80E-01   40.8     0.00000425     -6912.9884010194  5.13E-06
    92 OT SD       0.80E-01   34.6     0.00000713     -6912.9884074886 -6.47E-06
    93 OT DIIS     0.80E-01   32.7     0.00002956     -6912.9883827336  2.48E-05
    94 OT DIIS     0.80E-01   42.8     0.00000429     -6912.9883915709 -8.84E-06
    95 OT DIIS     0.80E-01   40.6     0.00000423     -6912.9883919481 -3.77E-07
    96 OT SD       0.80E-01   38.7     0.00000488     -6912.9884053561 -1.34E-05
    97 OT DIIS     0.80E-01   40.9     0.00001557     -6912.9884028370  2.52E-06
    98 OT SD       0.80E-01   40.4     0.00000407     -6912.9884183595 -1.55E-05
    99 OT DIIS     0.80E-01   39.4     0.00001096     -6912.9884200036 -1.64E-06
   100 OT DIIS     0.80E-01   32.7     0.00000358     -6912.9884542795 -3.43E-05

  Leaving inner SCF loop after reaching   100 steps.


  Electronic density on regular grids:      -2432.0000000064       -0.0000000064
  Core density on regular grids:             2431.9999999988       -0.0000000012
  Total charge density on r-space grids:       -0.0000000076
  Total charge density g-space grids:          -0.0000000076

  Overlap energy of the core charge distribution:               0.00554897825477
  Self energy of the core charge distribution:             -16017.19408509233290
  Core Hamiltonian energy:                                   4297.33193067892080
  Hartree energy:                                            6136.71151792103228
  Exchange-correlation energy:                              -1327.76397873422547
  Dispersion energy:                                           -2.07938803114587

  Total energy:                                             -6912.98845427949618

  outer SCF iter =    1 RMS gradient =   0.36E-05 energy =      -6912.9884542795

  ----------------------------------- OT ---------------------------------------
  Minimizer      : DIIS                : direct inversion
                                         in the iterative subspace
                                         using   7 DIIS vectors
                                         safer DIIS on
  Preconditioner : FULL_SINGLE_INVERSE : inversion of 
                                         H + eS - 2*(Sc)(c^T*H*c+const)(Sc)^T
  Precond_solver : DEFAULT
  stepsize       :    0.08000000                  energy_gap     :    0.08000000
  eps_taylor     :   0.10000E-15                  max_taylor     :             4
  ----------------------------------- OT ---------------------------------------

  Step     Update method      Time    Convergence         Total energy    Change
  ------------------------------------------------------------------------------
     1 OT DIIS     0.80E-01   86.4     0.00000511     -6912.9884645067 -1.02E-05
     2 OT DIIS     0.80E-01   40.4     0.00000536     -6912.9884771448 -1.26E-05
     3 OT SD       0.80E-01   37.7     0.00000535     -6912.9884777848 -6.40E-07
     4 OT SD       0.80E-01   35.0     0.00000585     -6912.9884913905 -1.36E-05
     5 OT SD       0.80E-01   29.1     0.00000732     -6912.9885057845 -1.44E-05
     6 OT SD       0.80E-01   38.4     0.00001396     -6912.9885159776 -1.02E-05
     7 OT DIIS     0.80E-01   39.6     0.00004882     -6912.9884386987  7.73E-05
     8 OT SD       0.80E-01   38.2     0.00000462     -6912.9884497450 -1.10E-05
     9 OT DIIS     0.80E-01   40.3     0.00000887     -6912.9884557610 -6.02E-06
    10 OT DIIS     0.80E-01   39.5     0.00000514     -6912.9884781936 -2.24E-05
    11 OT DIIS     0.80E-01   39.7     0.00000429     -6912.9884779580  2.36E-07
    12 OT DIIS     0.80E-01   40.2     0.00000445     -6912.9884814003 -3.44E-06
    13 OT DIIS     0.80E-01   39.4     0.00000515     -6912.9885301601 -4.88E-05
    14 OT DIIS     0.80E-01   39.9     0.00000311     -6912.9885385914 -8.43E-06
[...]
    30 OT DIIS     0.80E-01    9.8     0.00000239     -6923.2945632931 -2.75E-06
    31 OT DIIS     0.80E-01    9.8     0.00000209     -6923.2945647787 -1.49E-06
    32 OT DIIS     0.80E-01    9.8     0.00000190     -6923.2945671250 -2.35E-06
    33 OT DIIS     0.80E-01    9.8     0.00000198     -6923.2945688559 -1.73E-06
    34 OT DIIS     0.80E-01    9.9     0.00000195     -6923.2945710547 -2.20E-06
    35 OT DIIS     0.80E-01   10.1     0.00000179     -6923.2945715983 -5.44E-07
    36 OT DIIS     0.80E-01   10.2     0.00000162     -6923.2945733167 -1.72E-06
    37 OT DIIS     0.80E-01   10.2     0.00000152     -6923.2945748686 -1.55E-06
    38 OT DIIS     0.80E-01   10.1     0.00000162     -6923.2945764041 -1.54E-06
    39 OT DIIS     0.80E-01   10.1     0.00000156     -6923.2945772684 -8.64E-07
    40 OT DIIS     0.80E-01   10.1     0.00000144     -6923.2945785965 -1.33E-06
    41 OT DIIS     0.80E-01   10.2     0.00000144     -6923.2945798514 -1.25E-06
    42 OT DIIS     0.80E-01   10.2     0.00000142     -6923.2945812937 -1.44E-06
    43 OT DIIS     0.80E-01   10.2     0.00000139     -6923.2945817567 -4.63E-07
    44 OT DIIS     0.80E-01   10.2     0.00000129     -6923.2945831892 -1.43E-06
    45 OT DIIS     0.80E-01   10.2     0.00000124     -6923.2945846220 -1.43E-06
    46 OT DIIS     0.80E-01   10.2     0.00000129     -6923.2945860236 -1.40E-06
    47 OT DIIS     0.80E-01   10.2     0.00000126     -6923.2945868372 -8.14E-07
    48 OT DIIS     0.80E-01   10.1     0.00000118     -6923.2945881910 -1.35E-06
    49 OT DIIS     0.80E-01   10.1     0.00000121     -6923.2945895523 -1.36E-06
    50 OT DIIS     0.80E-01   10.1     0.00000119     -6923.2945911433 -1.59E-06
    51 OT DIIS     0.80E-01   10.2     0.00000118     -6923.2945916607 -5.17E-07
    52 OT DIIS     0.80E-01   10.2     0.00000110     -6923.2945935107 -1.85E-06
    53 OT DIIS     0.80E-01   10.1     0.00000107     -6923.2945952008 -1.69E-06
    54 OT DIIS     0.80E-01   10.1     0.00000108     -6923.2945966261 -1.43E-06
    55 OT DIIS     0.80E-01   10.2     0.00000107     -6923.2945975290 -9.03E-07
    56 OT DIIS     0.80E-01   10.1     0.00000101     -6923.2945992503 -1.72E-06
    57 OT DIIS     0.80E-01   10.2     0.00000105     -6923.2946007984 -1.55E-06
    58 OT DIIS     0.80E-01   10.1     0.00000102     -6923.2946023834 -1.59E-06
    59 OT DIIS     0.80E-01   10.2     0.00000101     -6923.2946028293 -4.46E-07
    60 OT DIIS     0.80E-01   10.1     0.00000093     -6923.2946045088 -1.68E-06

  *** SCF run converged in    60 steps ***


  Electronic density on regular grids:      -2431.9999997674        0.0000002326
  Core density on regular grids:             2431.9999999988       -0.0000000012
  Total charge density on r-space grids:        0.0000002314
  Total charge density g-space grids:           0.0000002314

  Overlap energy of the core charge distribution:               0.00000804956595
  Self energy of the core charge distribution:             -16017.19408509233290
  Core Hamiltonian energy:                                   4266.27707495372670
  Hartree energy:                                            6150.49252987776345
  Exchange-correlation energy:                              -1320.82322819086176
  Dispersion energy:                                           -2.04690410665810

  Total energy:                                             -6923.29460450879651

  outer SCF iter =    1 RMS gradient =   0.93E-06 energy =      -6923.2946045088
  outer SCF loop converged in   1 iterations or   60 steps


 ENERGY| Total FORCE_EVAL ( QS ) energy [hartree]          -6923.294604508796510

 -------------------------------------------------------------------------------
 -                                                                             -
 -                                DBCSR STATISTICS                             -
 -                                                                             -
 -------------------------------------------------------------------------------
 COUNTER                                    TOTAL       BLAS       SMM       ACC
 flops     9 x     9 x    32        1945332246528       0.0%      0.0%    100.0%     
 flops    14 x     9 x    32        7331993867520       0.0%      0.0%    100.0%     
 flops     9 x    14 x    32        7332852489984       0.0%      0.0%    100.0%     
 flops     9 x    32 x     9       11379417808896       0.0%      0.0%    100.0%     
 flops     9 x    13 x    32       22331880979200       0.0%      0.0%    100.0%     
 flops    13 x     9 x    32       22699358173440       0.0%      0.0%    100.0%     
 flops    14 x    14 x    32       28723824285184       0.0%      0.0%    100.0%     
 flops    14 x    32 x     9       44238734426880       0.0%      0.0%    100.0%     
 flops     9 x    32 x    14       44238734426880       0.0%      0.0%    100.0%     
 flops    32 x    32 x     9       61107833143296       0.0%      0.0%    100.0%     
 flops     9 x    32 x    32       76300203589632       0.0%      0.0%    100.0%     
 flops    14 x    13 x    32       80793416214784       0.0%      0.0%    100.0%     
 flops    13 x    14 x    32       82444199685120       0.0%      0.0%    100.0%     
 flops    13 x    32 x     9      137522961778176       0.0%      0.0%    100.0%     
 flops     9 x    32 x    13      137522961778176       0.0%      0.0%    100.0%     
 flops    14 x    32 x    14      171427359853568       0.0%      0.0%    100.0%     
 flops    13 x    13 x    32      173517703543808       0.0%      0.0%    100.0%     
 flops    32 x    32 x    14      237641573335040       0.0%      0.0%    100.0%     
 flops    14 x    32 x    32      296723013959680       0.0%      0.0%    100.0%     
 flops    32 x    32 x    32      504154032701440       0.0%      0.0%    100.0%     
 flops    14 x    32 x    13      510206996638976       0.0%      0.0%    100.0%     
 flops    13 x    32 x    14      510206996638976       0.0%      0.0%    100.0%     
 flops    32 x    32 x    13      758543414886400       0.0%      0.0%    100.0%     
 flops    13 x    32 x    32      947129263308800       0.0%      0.0%    100.0%     
 flops    13 x    32 x    13     1263803195552768       0.0%      0.0%    100.0%     
 flops inhomo. stacks                           0       0.0%      0.0%      0.0%
 flops total                         6.139267E+15       0.0%      0.0%    100.0%
 flops max/rank                      6.139267E+15       0.0%      0.0%    100.0%
 matmuls inhomo. stacks                         0       0.0%      0.0%      0.0%
 matmuls total                       406418973016       0.0%      0.0%    100.0%
 number of processed stacks              26512745       0.0%      0.0%    100.0%
 average stack size                                     0.0       0.0   15329.2
 marketing flops                     7.412379E+15
 -------------------------------------------------------------------------------
 # multiplications                         377312
 max memory usage/rank              10.813092E+09
 # max total images/rank                        1
 # max 3D layers                                1
 # MPI messages exchanged                       0
 -------------------------------------------------------------------------------
 -                                                                             -
 -                      DBCSR MESSAGE PASSING PERFORMANCE                      -
 -                                                                             -
 -------------------------------------------------------------------------------
 ROUTINE             CALLS      AVE VOLUME [Bytes]
 MP_Bcast               26                     12.
 MP_Allreduce      1360486                      9.
 MP_Alltoall       1192427                4218126.
 MP_ISend          1508160                 328942.
 MP_IRecv          1508160                 328942.
 -------------------------------------------------------------------------------

 -------------------------------------------------------------------------------
 -                                                                             -
 -                                DBM STATISTICS                               -
 -                                                                             -
 -------------------------------------------------------------------------------
    M  x    N  x    K                                          COUNT     PERCENT
 -------------------------------------------------------------------------------

 -------------------------------------------------------------------------------
 -                                                                             -
 -                                GRID STATISTICS                              -
 -                                                                             -
 -------------------------------------------------------------------------------
 LP    KERNEL             BACKEND                              COUNT     PERCENT
 2     collocate general  GPU                              384498017       1.78%
 2     integrate general  GPU                              379653939       1.75%
 5     integrate general  GPU                               87623591       0.40%
 0     collocate general  CPU                                  89397       0.00%
 1     integrate general  CPU                                  89010       0.00%
 3     collocate general  GPU                             3494253851      16.14%
 3     integrate general  GPU                             3455044392      15.96%
 4     collocate general  GPU                             6945365609      32.08%
 4     integrate general  GPU                             6901207419      31.88%
 -------------------------------------------------------------------------------

 MEMORY| Estimated peak process memory [MiB]                               10270

 -------------------------------------------------------------------------------
 -                                                                             -
 -                         MESSAGE PASSING PERFORMANCE                         -
 -                                                                             -
 -------------------------------------------------------------------------------

 ROUTINE             CALLS      AVE VOLUME [Bytes]
 MP_Group                4
 MP_Bcast           350531                   7139.
 MP_Allreduce       854617                   6929.
 MP_Sync              9980
 -------------------------------------------------------------------------------


 -------------------------------------------------------------------------------
 -                                                                             -
 -                           R E F E R E N C E S                               -
 -                                                                             -
 -------------------------------------------------------------------------------
 
 CP2K version 2025.1, the CP2K developers group (2025).
 CP2K is freely available from https://www.cp2k.org/ .
 
 T. D. Kuehne, M. Iannuzzi, M. Del Ben, V. V. Rybkin, P. Seewald, F. Stein, T. 
 Laino, R. Z. Khaliullin, O. Schuett, F. Schiffmann, D. Golze, J. Wilhelm, S. 
 Chulkov, M. H. Bani-Hashemian, V. Weber, U. Borstnik, M. Taillefumier, A. S. 
 Jakobovits, A. Lazzaro, H. Pabst, T. Mueller, R. Schade, M. Guidon, S. 
 Andermatt, N. Holmberg, G. K. Schenter, A. Hehn, A. Bussy, F. Belleflamme, G. 
 Tabacchi, A. Gloess, M. Lass, I. Bethune, C. J. Mundy, C. Plessl, M. Watkins, 
 J. VandeVondele, M. Krack, J. Hutter.
 J. Chem. Phys. 152, 194103 (2020).
 CP2K: An electronic structure and molecular dynamics software package - 
 Quickstep: Efficient and accurate electronic structure calculations.
 https://doi.org/10.1063/5.0007045

 E. Caldeweyher, J. M. Mewes, S. Ehlert, S. Grimme.
 Phys. Chem. Chem. Phys. 22, 8499-8512 (2020).
 Extension and evaluation of the D4 London-dispersion model for periodic 
 systems.
 https://doi.org/10.1039/d0cp00502a

 E. Caldeweyher, S. Ehlert, A. Hansen, H. Neugebauer, S. Spicher, C. Bannwarth, 
 S. Grimme.
 J. Chem. Phys. 150, 154122 (2019).
 A generally applicable atomic-charge dependent London dispersion correction.
 https://doi.org/10.1063/1.5090222

 E. Caldeweyher, C. Bannwarth, S. Grimme.
 J. Chem. Phys. 147, 034112 (2017).
 Extension of the D3 dispersion coefficient model.
 https://doi.org/10.1063/1.4993215

 O. Schuett, P. Messmer, J. Hutter, J. VandeVondele.
 Electronic Structure Calculations on Graphics Processing Units, 173-190 (2016).
 GPU-Accelerated Sparse Matrix-Matrix Multiplication for Linear Scaling Density 
 Functional Theory.
 https://doi.org/10.1002/9781118670712.ch8

 A. Heinecke, G. Henry, M. Hutchinson, H. Pabst.
 Proceedings of Intl. Supercomputing Conference, 981-991 (2016).
 LIBXSMM: Accelerating Small Matrix Multiplications by Runtime Code Generation.
 https://doi.org/10.1109/SC.2016.83

 J. Hutter, M. Iannuzzi, F. Schiffmann, J. VandeVondele.
 WIREs Comput Mol Sci. 4, 15-25 (2014).
 CP2K: atomistic simulations of condensed matter systems.
 https://doi.org/10.1002/wcms.1159

 U. Borstnik, J. VandeVondele, V. Weber, J. Hutter.
 Parallel Comput. 40, 47-58 (2014).
 Sparse matrix multiplication: The distributed block-compressed sparse row 
 library.
 https://doi.org/10.1016/j.parco.2014.03.012

 A. Marek, V. Blum, R. Johanni, V. Havu, B. Lang, T. Auckenthaler, A. Heinecke, 
 H. Bungartz, H. Lederer.
 J. Phys. Condens. Matter 26, 213201 (2014).
 The ELPA library: scalable parallel eigenvalue solutions for electronic 
 structure theory and computational science.
 https://doi.org/10.1088/0953-8984/26/21/213201

 J. VandeVondele, J. Hutter.
 J. Chem. Phys. 127, 114105 (2007).
 Gaussian basis sets for accurate calculations on molecular systems in gas and 
 condensed phases.
 https://doi.org/10.1063/1.2770708

 T. D. Khne, M. Krack, F. R. Mohamed, M. Parrinello.
 Phys. Rev. Lett. 98, 066401 (2007).
 Efficient and accurate Car-Parrinello-like approach to Born-Oppenheimer 
 molecular dynamics.
 https://doi.org/10.1103/PhysRevLett.98.066401

 J. VandeVondele, M. Krack, F. Mohamed, M. Parrinello, T. Chassaing, J. Hutter.
 Comput. Phys. Commun. 167, 103-128 (2005).
 QUICKSTEP: Fast and accurate density functional calculations using a mixed 
 Gaussian and plane waves approach.
 https://doi.org/10.1016/j.cpc.2004.12.014

 M. Krack.
 Theor. Chem. Acc. 114, 145-152 (2005).
 Pseudopotentials for H to Kr optimized for gradient-corrected 
 exchange-correlation functionals.
 https://doi.org/10.1007/s00214-005-0655-y

 M. Frigo, S. G. Johnson.
 Proc. IEEE 93, 216-231 (2005).
 The design and implementation of FFTW3.
 https://doi.org/10.1109/JPROC.2004.840301

 J. Kolafa.
 J. Comput. Chem. 25, 335-342 (2004).
 Time-reversible always stable predictor-corrector method for molecular dynamics 
 of polarizable molecules.
 https://doi.org/10.1002/jcc.10385

 J. VandeVondele, J. Hutter.
 J. Chem. Phys. 118, 4365-4369 (2003).
 An efficient orbital transformation method for electronic structure 
 calculations.
 https://doi.org/10.1063/1.1543154

 C. Hartwigsen, S. Goedecker, J. Hutter.
 Phys. Rev. B 58, 3641-3662 (1998).
 Relativistic separable dual-space Gaussian pseudopotentials from H to Rn.
 https://doi.org/10.1103/PhysRevB.58.3641

 G. Lippert, J. Hutter, M. Parrinello.
 Mol. Phys. 92, 477-487 (1997).
 A hybrid Gaussian and plane wave density functional scheme.
 https://doi.org/10.1080/002689797170220

 S. Goedecker, M. Teter, J. Hutter.
 Phys. Rev. B 54, 1703-1710 (1996).
 Separable dual-space Gaussian pseudopotentials.
 https://doi.org/10.1103/PhysRevB.54.1703

 J. P. Perdew, K. Burke, M. Ernzerhof.
 Phys. Rev. Lett. 77, 3865-3868 (1996).
 Generalized gradient approximation made simple.
 https://doi.org/10.1103/PhysRevLett.77.3865

 R. H. Byrd, P. H. Lu, J. Nocedal, C. Y. Zhu.
 SIAM J. Sci. Comput. 16, 1190-1208 (1995).
 A Limited Memory Algorithm for Bound Constrained Optimization.
 https://doi.org/10.1137/0916069


 -------------------------------------------------------------------------------
 -                                                                             -
 -                                T I M I N G                                  -
 -                                                                             -
 -------------------------------------------------------------------------------
 SUBROUTINE                       CALLS  ASD         SELF TIME        TOTAL TIME
                                MAXIMUM       AVERAGE  MAXIMUM  AVERAGE  MAXIMUM
 CP2K                                 1  1.0      0.4      0.4 405667.8 405667.8
 cp_geo_opt                           1  2.0      0.0      0.0 405663.9 405663.9
 geoopt_lbfgs                         1  3.0      0.0      0.0 405663.9 405663.9
 cp_eval_at                         231  5.0      0.2      0.2 405659.9 405659.9
 cp_opt_gopt_step                   196  4.0      0.5      0.5 405053.0 405053.0
 qs_forces                          230  6.0      0.4      0.4 405048.6 405048.6
 qs_energies                        231  7.0      0.4      0.4 400344.2 400344.2
 scf_env_do_scf                     231  8.0      0.3      0.3 396939.4 396939.4
 scf_env_do_scf_inner_loop        17970  9.0      9.8      9.8 391578.3 391578.3
 rebuild_ks_matrix                18200 11.0      0.1      0.1 250818.1 250818.1
 qs_ks_build_kohn_sham_matrix     18200 12.0      4.6      4.6 250818.0 250818.0
 qs_ks_update_qs_env              18242 10.0      0.3      0.3 246601.7 246601.7
 sum_up_and_integrate             18200 13.0      0.8      0.8 218159.7 218159.7
 integrate_v_rspace               18200 14.0    103.4    103.4 217893.7 217893.7
 grid_integrate_task_list         18200 15.0 215687.1 215687.1 215687.1 215687.1
 qs_rho_update_rho_low            18201 10.0      0.2      0.2 116369.1 116369.1
 calculate_rho_elec               18201 11.0    613.2    613.2 116368.9 116368.9
 grid_collocate_task_list         18201 12.0 112185.3 112185.3 112185.3 112185.3
 qs_scf_new_mos                   17970 10.0      0.1      0.1  33150.0  33150.0
 qs_scf_loop_do_ot                17970 11.0      0.3      0.3  33149.8  33149.8
 ot_scf_mini                      17970 12.0      1.0      1.0  30886.9  30886.9
 dbcsr_multiply_generic          377312 15.1     91.3     91.3  29717.7  29717.7
 qs_vxc_create                    18200 13.0      0.6      0.6  21928.3  21928.3
 xc_vxc_pw_create                 18200 14.0   1121.6   1121.6  21927.7  21927.7
 multiply_cannon                 377312 16.1    683.9    683.9  20560.7  20560.7
 multiply_cannon_loop            377312 17.1   1273.3   1273.3  18943.9  18943.9
 ot_mini                          17970 13.0      0.4      0.4  17557.0  17557.0
 multiply_cannon_multrec         377312 18.1   9471.9   9471.9  15738.2  15738.2
 fft_wrap_pw1pw2                 309636 15.3      7.6      7.6  13413.0  13413.0
 xc_rho_set_and_dset_create       18200 15.0   1602.6   1602.6  12899.8  12899.8
 fft_wrap_pw1pw2_200             200433 16.7      1.0      1.0  12736.8  12736.8
 qs_ot_get_derivative             17970 14.0      0.3      0.3  11492.0  11492.0
 xc_pw_derive                    109200 16.0      2.3      2.3  11170.2  11170.2
 -------------------------------------------------------------------------------

 The number of warnings for this run is : 0
 
 -------------------------------------------------------------------------------
  **** **** ******  **  PROGRAM ENDED AT                 2025-10-27 10:21:15.745
 ***** ** ***  *** **   PROGRAM RAN ON                              5efd787fc282
 **    ****   ******    PROGRAM RAN BY                                 <unknown>
 ***** **    ** ** **   PROGRAM PROCESS ID                                   614
  **** **  *******  **  PROGRAM STOPPED IN                             /mnt/cp2k
