 DBCSR| CPU Multiplication driver                                           XSMM (U)
 DBCSR| Multrec recursion limit                                              512 (U)
 DBCSR| Multiplication stack size                                          30000 (D)
 DBCSR| Maximum elements for images                                    UNLIMITED (U)
 DBCSR| Multiplicative factor virtual images                                   1 (U)
 DBCSR| Use multiplication densification                                       F (D)
 DBCSR| Multiplication size stacks                                             3 (U)
 DBCSR| Use memory pool for CPU allocation                                     F (U)
 DBCSR| Number of 3D layers                                               SINGLE (U)
 DBCSR| Use MPI memory allocation                                              F (U)
 DBCSR| Use RMA algorithm                                                      F (U)
 DBCSR| Use Communication thread                                               T (U)
 DBCSR| Communication thread load                                             30 (D)
 DBCSR| MPI: My process id                                                     0
 DBCSR| MPI: Number of processes                                               1
 DBCSR| OMP: Current number of threads                                        16
 DBCSR| OMP: Max number of threads                                            16
 DBCSR| ACC: Number of devices/node                                            1
 DBCSR| ACC: Number of stack-buffers per thread                                8 (U)
 DBCSR| ACC: Avoid driver after busy                                           F (U)
 DBCSR| ACC: Process inhomogeneous stacks                                      T (U)
 DBCSR| ACC: Min. flop for processing                                          0 (U)
 DBCSR| ACC: Use G2G algorithm                                                 F (D)
 DBCSR| ACC: Min. flop for sorting                                          4000 (U)
 DBCSR| ACC: Number of binning bins                                         4096 (U)
 DBCSR| ACC: Size of binning bins                                             16 (U)
 DBCSR| ACC: GPU backend is enabled                                            T (D)
 DBCSR| Split modifier for TAS multiplication algorithm                  1.0E+00 (U)


  **** **** ******  **  PROGRAM STARTED AT               2025-10-19 11:20:25.722
 ***** ** ***  *** **   PROGRAM STARTED ON                          766b05cff88f
 **    ****   ******    PROGRAM STARTED BY                             <unknown>
 ***** **    ** ** **   PROGRAM PROCESS ID                                   614
  **** **  *******  **  PROGRAM STARTED IN                             /mnt/cp2k

 CP2K| version string:                                       CP2K version 2025.1
 CP2K| source code revision number:                                  git:9635df4
 CP2K| cp2kflags: omp libint fftw3 libxc libgrpp pexsi elpa elpa_nvidia_gpu para
 CP2K|            llel scalapack cosma quip xsmm dbcsr_acc plumed2 spglib libdft
 CP2K|            td4 sirius libvori libbqb offload_cuda spla_gemm_offloading li
 CP2K|            ibvdwxc hdf5 trexio
 CP2K| is freely available from                            https://www.cp2k.org/
 CP2K| Program compiled at                          Tue Jan 14 21:07:27 UTC 2025
 CP2K| Program compiled on                                          eb3a76499499
 CP2K| Program compiled for                                           local_cuda
 CP2K| Data directory path                                        /opt/cp2k/data
 CP2K| Input file name                                           HAP_513_opt.inp

 GLOBAL| Force Environment number                                              1
 GLOBAL| Basis set file name                                        BASIS_MOLOPT
 GLOBAL| Potential file name                                      GTH_POTENTIALS
 GLOBAL| MM Potential file name                                     MM_POTENTIAL
 GLOBAL| Coordinate file name                                  HAP_513_clean.xyz
 GLOBAL| Method name                                                        CP2K
 GLOBAL| Project name                                                HAP_513_opt
 GLOBAL| Run type                                                        GEO_OPT
 GLOBAL| FFT library                                                       FFTW3
 GLOBAL| Diagonalization library                                            ELPA
 GLOBAL| DGEMM library                                                      SPLA
 GLOBAL| Minimum number of eigenvectors for ELPA usage                        16
 GLOBAL| Orthonormality check for eigenvectors                          DISABLED
 GLOBAL| Matrix multiplication library                                     COSMA
 GLOBAL| All-to-all communication in single precision                          F
 GLOBAL| FFTs using library dependent lengths                                  F
 GLOBAL| Grid backend                                                       AUTO
 GLOBAL| Global print level                                                  LOW
 GLOBAL| MPI I/O enabled                                                       T
 GLOBAL| Total number of message passing processes                             1
 GLOBAL| Number of threads for this process                                   16
 GLOBAL| This output is from process                                           0
 GLOBAL| OpenMP stack size per thread (OMP_STACKSIZE)                        16M
 GLOBAL| CPU model name                           Intel(R) Core(TM) Ultra 7 265K
 GLOBAL| CPUID                                                              1002
 GLOBAL| Compiled for CPUID                                                    0

 *** HINT in environment.F:928 :: The compiler target flags (generic) used ***
 *** to build this binary cannot exploit all extensions of this CPU model  ***
 *** (x86_avx2). Consider compiler target flags as part of FCFLAGS and     ***
 *** CFLAGS (ARCH file).                                                   ***


 MEMORY| system memory details [Kb]
 MEMORY|                        rank 0           min           max       average
 MEMORY| MemTotal             49330320      49330320      49330320      49330320
 MEMORY| MemFree              47746924      47746924      47746924      47746924
 MEMORY| Buffers                 30528         30528         30528         30528
 MEMORY| Cached                 715832        715832        715832        715832
 MEMORY| Slab                    94512         94512         94512         94512
 MEMORY| SReclaimable            21060         21060         21060         21060
 MEMORY| MemLikelyFree        48514344      48514344      48514344      48514344


 GENERATE|  Preliminary Number of Bonds generated:                             0
 GENERATE|  Achieved consistency in connectivity generation.

 *******************************************************************************
 *******************************************************************************
 **                                                                           **
 **     #####                         ##              ##                      **
 **    ##   ##            ##          ##              ##                      **
 **   ##     ##                       ##            ######                    **
 **   ##     ##  ##   ##  ##   #####  ##  ##   ####   ##    #####    #####    **
 **   ##     ##  ##   ##  ##  ##      ## ##   ##      ##   ##   ##  ##   ##   **
 **   ##  ## ##  ##   ##  ##  ##      ####     ###    ##   ######   ######    **
 **    ##  ###   ##   ##  ##  ##      ## ##      ##   ##   ##       ##        **
 **     #######   #####   ##   #####  ##  ##  ####    ##    #####   ##        **
 **           ##                                                    ##        **
 **                                                                           **
 **                                                ... make the atoms dance   **
 **                                                                           **
 **            Copyright (C) by CP2K developers group (2000-2025)             **
 **                      J. Chem. Phys. 152, 194103 (2020)                    **
 **                                                                           **
 *******************************************************************************


 TOTAL NUMBERS AND MAXIMUM NUMBERS

  Total number of            - Atomic kinds:                                   5
                             - Atoms:                                        387
                             - Shell sets:                                   387
                             - Shells:                                      2015
                             - Primitive Cartesian functions:               2031
                             - Cartesian basis functions:                   5338
                             - Spherical basis functions:                   4983

  Maximum angular momentum of- Orbital basis functions:                        2
                             - Local part of the GTH pseudopotential:          2
                             - Non-local part of the GTH pseudopotential:      3


 SCF PARAMETERS         Density guess:                                    ATOMIC
                        --------------------------------------------------------
                        max_scf:                                             100
                        max_scf_history:                                       0
                        max_diis:                                              4
                        --------------------------------------------------------
                        eps_scf:                                        1.00E-06
                        eps_scf_history:                                0.00E+00
                        eps_diis:                                       1.00E-01
                        eps_eigval:                                     1.00E-05
                        --------------------------------------------------------
                        level_shift [a.u.]:                             0.000000
                        --------------------------------------------------------
                        Outer loop SCF in use 
                        No variables optimised in outer loop
                        eps_scf                                         1.00E-06
                        max_scf                                               50
                        No outer loop optimization
                        step_size                                       5.00E-01

 *******************************************************************************
 ***                     STARTING GEOMETRY OPTIMIZATION                      ***
 ***                                 L-BFGS                                  ***
 *******************************************************************************

 --------------------------
 OPTIMIZATION STEP:      1
 --------------------------

 Number of electrons:                                                       2432
 Number of occupied orbitals:                                               1216
 Number of molecular orbitals:                                              1216

 Number of orbital functions:                                               4983
 Number of independent orbital functions:                                   4983

 Extrapolation method: initial_guess


 SCF WAVEFUNCTION OPTIMIZATION

  ----------------------------------- OT ---------------------------------------
  Minimizer      : DIIS                : direct inversion
                                         in the iterative subspace
                                         using   7 DIIS vectors
                                         safer DIIS on
  Preconditioner : FULL_SINGLE_INVERSE : inversion of 
                                         H + eS - 2*(Sc)(c^T*H*c+const)(Sc)^T
  Precond_solver : DEFAULT
  stepsize       :    0.08000000                  energy_gap     :    0.08000000
  eps_taylor     :   0.10000E-15                  max_taylor     :             4
  ----------------------------------- OT ---------------------------------------

  Step     Update method      Time    Convergence         Total energy    Change
  ------------------------------------------------------------------------------
     1 OT DIIS     0.80E-01   22.9     0.01545247     -6701.6146155049 -6.70E+03
     2 OT DIIS     0.80E-01   12.0     0.00924314     -6773.1084567658 -7.15E+01
     3 OT DIIS     0.80E-01   11.6     0.00674155     -6804.3951610178 -3.13E+01
     4 OT DIIS     0.80E-01   11.4     0.00492223     -6836.4581182551 -3.21E+01
     5 OT DIIS     0.80E-01   11.6     0.00372981     -6849.3861331176 -1.29E+01
     6 OT DIIS     0.80E-01   11.5     0.00292288     -6860.8999205134 -1.15E+01
     7 OT DIIS     0.80E-01   11.6     0.00233152     -6869.5725088490 -8.67E+00
     8 OT DIIS     0.80E-01   11.6     0.00185765     -6876.5124707635 -6.94E+00
     9 OT DIIS     0.80E-01   11.5     0.00145980     -6881.8101426338 -5.30E+00
    10 OT DIIS     0.80E-01   11.6     0.00117067     -6885.0568549444 -3.25E+00
    11 OT DIIS     0.80E-01   11.5     0.00095823     -6887.1270091181 -2.07E+00
    12 OT DIIS     0.80E-01   11.3     0.00076320     -6888.8770750725 -1.75E+00
    13 OT DIIS     0.80E-01   11.5     0.00064558     -6889.8744368178 -9.97E-01
    14 OT DIIS     0.80E-01   11.5     0.00053198     -6890.7750197825 -9.01E-01
    15 OT DIIS     0.80E-01   11.5     0.00045435     -6891.3902165088 -6.15E-01
    16 OT DIIS     0.80E-01   11.9     0.00040227     -6891.7965097806 -4.06E-01
    17 OT DIIS     0.80E-01   11.8     0.00035723     -6892.1463667041 -3.50E-01
    18 OT DIIS     0.80E-01   11.5     0.00031322     -6892.4638496865 -3.17E-01
    19 OT DIIS     0.80E-01   11.4     0.00028001     -6892.6932470731 -2.29E-01
    20 OT DIIS     0.80E-01   11.5     0.00025573     -6892.8549363300 -1.62E-01
    21 OT DIIS     0.80E-01   11.5     0.00022729     -6893.0152625577 -1.60E-01
    22 OT DIIS     0.80E-01   11.5     0.00019981     -6893.1698147388 -1.55E-01
    23 OT DIIS     0.80E-01   11.5     0.00018011     -6893.2747438607 -1.05E-01
    24 OT DIIS     0.80E-01   11.4     0.00016502     -6893.3598112758 -8.51E-02
    25 OT DIIS     0.80E-01   11.5     0.00015268     -6893.4273853570 -6.76E-02
    26 OT DIIS     0.80E-01   11.5     0.00014161     -6893.4937082139 -6.63E-02
    27 OT DIIS     0.80E-01   11.4     0.00013225     -6893.5476845555 -5.40E-02
    28 OT DIIS     0.80E-01   11.5     0.00012285     -6893.6029818478 -5.53E-02
    29 OT DIIS     0.80E-01   11.5     0.00011383     -6893.6546278623 -5.16E-02
    30 OT DIIS     0.80E-01   11.4     0.00010560     -6893.6962702999 -4.16E-02
    31 OT DIIS     0.80E-01   11.7     0.00009707     -6893.7396956413 -4.34E-02
    32 OT DIIS     0.80E-01   11.5     0.00008932     -6893.7764645307 -3.68E-02
    33 OT DIIS     0.80E-01   11.5     0.00008354     -6893.8044979009 -2.80E-02
    34 OT DIIS     0.80E-01   11.4     0.00007821     -6893.8273711094 -2.29E-02
    35 OT DIIS     0.80E-01   11.5     0.00007246     -6893.8539612511 -2.66E-02
    36 OT DIIS     0.80E-01   11.6     0.00006803     -6893.8750302377 -2.11E-02
    37 OT DIIS     0.80E-01   11.5     0.00006460     -6893.8900878956 -1.51E-02
    38 OT DIIS     0.80E-01   11.6     0.00006080     -6893.9069010744 -1.68E-02
    39 OT DIIS     0.80E-01   11.4     0.00005708     -6893.9234254538 -1.65E-02
    40 OT DIIS     0.80E-01   11.4     0.00005456     -6893.9356622731 -1.22E-02
    41 OT DIIS     0.80E-01   11.7     0.00005211     -6893.9438974961 -8.24E-03
    42 OT DIIS     0.80E-01   11.7     0.00004836     -6893.9591075100 -1.52E-02
    43 OT DIIS     0.80E-01   11.5     0.00004539     -6893.9708420077 -1.17E-02
    44 OT DIIS     0.80E-01   11.5     0.00004325     -6893.9781529895 -7.31E-03
    45 OT DIIS     0.80E-01   11.5     0.00004007     -6893.9881041562 -9.95E-03
    46 OT DIIS     0.80E-01   11.6     0.00003719     -6893.9973473353 -9.24E-03
    47 OT DIIS     0.80E-01   11.6     0.00003552     -6894.0033651175 -6.02E-03
    48 OT DIIS     0.80E-01   11.5     0.00003400     -6894.0078257228 -4.46E-03
    49 OT DIIS     0.80E-01   11.5     0.00003186     -6894.0148727505 -7.05E-03
    50 OT DIIS     0.80E-01   11.4     0.00003011     -6894.0208757889 -6.00E-03
    51 OT DIIS     0.80E-01   11.6     0.00002906     -6894.0248681169 -3.99E-03
    52 OT DIIS     0.80E-01   11.5     0.00002800     -6894.0281726860 -3.30E-03
    53 OT DIIS     0.80E-01   11.6     0.00002639     -6894.0335644969 -5.39E-03
    54 OT DIIS     0.80E-01   11.6     0.00002522     -6894.0378188943 -4.25E-03
    55 OT DIIS     0.80E-01   11.6     0.00002437     -6894.0405038112 -2.68E-03
    56 OT DIIS     0.80E-01   11.5     0.00002348     -6894.0437461811 -3.24E-03
    57 OT DIIS     0.80E-01   11.6     0.00002245     -6894.0473306174 -3.58E-03
    58 OT DIIS     0.80E-01   11.6     0.00002175     -6894.0502325814 -2.90E-03
    59 OT DIIS     0.80E-01   11.6     0.00002113     -6894.0521515271 -1.92E-03
    60 OT DIIS     0.80E-01   11.6     0.00002022     -6894.0555617884 -3.41E-03
    61 OT DIIS     0.80E-01   11.6     0.00001952     -6894.0583756630 -2.81E-03
    62 OT DIIS     0.80E-01   11.6     0.00001899     -6894.0601240805 -1.75E-03
    63 OT DIIS     0.80E-01   11.4     0.00001836     -6894.0625083388 -2.38E-03
    64 OT DIIS     0.80E-01   11.4     0.00001767     -6894.0650619796 -2.55E-03
    65 OT DIIS     0.80E-01   11.5     0.00001724     -6894.0670243657 -1.96E-03
    66 OT DIIS     0.80E-01   11.4     0.00001675     -6894.0681664373 -1.14E-03
    67 OT DIIS     0.80E-01   11.6     0.00001582     -6894.0710660817 -2.90E-03
    68 OT DIIS     0.80E-01   11.5     0.00001516     -6894.0732030780 -2.14E-03
    69 OT DIIS     0.80E-01   11.5     0.00001469     -6894.0748364939 -1.63E-03
    70 OT DIIS     0.80E-01   11.6     0.00001423     -6894.0762921742 -1.46E-03
    71 OT DIIS     0.80E-01   11.4     0.00001381     -6894.0776987876 -1.41E-03
    72 OT DIIS     0.80E-01   11.6     0.00001351     -6894.0788907264 -1.19E-03
    73 OT DIIS     0.80E-01   11.5     0.00001326     -6894.0796957631 -8.05E-04
    74 OT DIIS     0.80E-01   11.5     0.00001287     -6894.0811381185 -1.44E-03
    75 OT DIIS     0.80E-01   11.5     0.00001248     -6894.0827998544 -1.66E-03
    76 OT DIIS     0.80E-01   11.5     0.00001219     -6894.0839479102 -1.15E-03
    77 OT DIIS     0.80E-01   11.4     0.00001195     -6894.0848673235 -9.19E-04
    78 OT DIIS     0.80E-01   11.4     0.00001162     -6894.0863022141 -1.43E-03
    79 OT DIIS     0.80E-01   11.5     0.00001137     -6894.0874411714 -1.14E-03
    80 OT DIIS     0.80E-01   11.5     0.00001120     -6894.0880742226 -6.33E-04
    81 OT DIIS     0.80E-01   11.4     0.00001088     -6894.0895948549 -1.52E-03
    82 OT DIIS     0.80E-01   11.5     0.00001067     -6894.0908380301 -1.24E-03
    83 OT DIIS     0.80E-01   11.5     0.00001052     -6894.0913791796 -5.41E-04
    84 OT DIIS     0.80E-01   11.6     0.00001008     -6894.0930586228 -1.68E-03
    85 OT DIIS     0.80E-01   11.5     0.00000983     -6894.0941558956 -1.10E-03
    86 OT DIIS     0.80E-01   11.4     0.00000962     -6894.0950619333 -9.06E-04
    87 OT DIIS     0.80E-01   11.7     0.00000945     -6894.0956987270 -6.37E-04
    88 OT DIIS     0.80E-01   11.7     0.00000925     -6894.0964667438 -7.68E-04
    89 OT DIIS     0.80E-01   11.5     0.00000906     -6894.0974378616 -9.71E-04
    90 OT DIIS     0.80E-01   11.5     0.00000897     -6894.0979152970 -4.77E-04
    91 OT DIIS     0.80E-01   11.4     0.00000877     -6894.0984879517 -5.73E-04
    92 OT DIIS     0.80E-01   11.5     0.00000861     -6894.0992584057 -7.70E-04
    93 OT DIIS     0.80E-01   11.6     0.00000846     -6894.0998206781 -5.62E-04
    94 OT DIIS     0.80E-01   11.5     0.00000831     -6894.1003827516 -5.62E-04
    95 OT DIIS     0.80E-01   11.5     0.00000820     -6894.1008343229 -4.52E-04
    96 OT DIIS     0.80E-01   11.4     0.00000809     -6894.1014812254 -6.47E-04
    97 OT DIIS     0.80E-01   11.5     0.00000803     -6894.1017778042 -2.97E-04
    98 OT DIIS     0.80E-01   11.5     0.00000790     -6894.1022222476 -4.44E-04
    99 OT DIIS     0.80E-01   11.6     0.00000781     -6894.1024619467 -2.40E-04
   100 OT DIIS     0.80E-01   11.5     0.00000766     -6894.1029695692 -5.08E-04

  Leaving inner SCF loop after reaching   100 steps.


  Electronic density on regular grids:      -2431.9999999979        0.0000000021
  Core density on regular grids:             2431.9999999988       -0.0000000012
  Total charge density on r-space grids:        0.0000000009
  Total charge density g-space grids:           0.0000000009

  Overlap energy of the core charge distribution:               0.02315571458300
  Self energy of the core charge distribution:             -16017.19408509233290
  Core Hamiltonian energy:                                   4310.25607997616771
  Hartree energy:                                            6138.28298505747716
  Exchange-correlation energy:                              -1323.88642872211199
  Dispersion energy:                                           -1.58467650300656

  Total energy:                                             -6894.10296956922411

  outer SCF iter =    1 RMS gradient =   0.77E-05 energy =      -6894.1029695692

  ----------------------------------- OT ---------------------------------------
  Minimizer      : DIIS                : direct inversion
                                         in the iterative subspace
                                         using   7 DIIS vectors
                                         safer DIIS on
  Preconditioner : FULL_SINGLE_INVERSE : inversion of 
                                         H + eS - 2*(Sc)(c^T*H*c+const)(Sc)^T
  Precond_solver : DEFAULT
  stepsize       :    0.08000000                  energy_gap     :    0.08000000
  eps_taylor     :   0.10000E-15                  max_taylor     :             4
  ----------------------------------- OT ---------------------------------------

  Step     Update method      Time    Convergence         Total energy    Change
  ------------------------------------------------------------------------------
     1 OT DIIS     0.80E-01   31.1     0.00008939     -6894.1032886405 -3.19E-04
     2 OT DIIS     0.80E-01   11.0     0.00010732     -6894.1056553010 -2.37E-03
     3 OT DIIS     0.80E-01   11.0     0.00011041     -6894.1064263256 -7.71E-04
     4 OT DIIS     0.80E-01   11.0     0.00008982     -6894.1074856474 -1.06E-03
     5 OT DIIS     0.80E-01   11.0     0.00007365     -6894.1090114008 -1.53E-03
     6 OT DIIS     0.80E-01   11.0     0.00006441     -6894.1098722836 -8.61E-04
     7 OT DIIS     0.80E-01   11.0     0.00005317     -6894.1109087279 -1.04E-03
     8 OT DIIS     0.80E-01   11.1     0.00004995     -6894.1117867011 -8.78E-04
     9 OT DIIS     0.80E-01   11.0     0.00004330     -6894.1125603324 -7.74E-04
    10 OT DIIS     0.80E-01   11.2     0.00004459     -6894.1132950005 -7.35E-04
    11 OT DIIS     0.80E-01   11.0     0.00004134     -6894.1142694300 -9.74E-04
    12 OT DIIS     0.80E-01   11.0     0.00004163     -6894.1151854235 -9.16E-04
    13 OT DIIS     0.80E-01   11.6     0.00004263     -6894.1160914546 -9.06E-04
    14 OT DIIS     0.80E-01   11.5     0.00004261     -6894.1170821964 -9.91E-04
    15 OT DIIS     0.80E-01   11.5     0.00004188     -6894.1177789356 -6.97E-04
    16 OT DIIS     0.80E-01   11.5     0.00004115     -6894.1184900962 -7.11E-04
    17 OT DIIS     0.80E-01   11.5     0.00004047     -6894.1189956685 -5.06E-04
    18 OT DIIS     0.80E-01   11.6     0.00003848     -6894.1201756073 -1.18E-03
    19 OT DIIS     0.80E-01   11.7     0.00003986     -6894.1202508018 -7.52E-05
    20 OT DIIS     0.80E-01   11.5     0.00003988     -6894.1205784946 -3.28E-04
    21 OT DIIS     0.80E-01   11.6     0.00003845     -6894.1211164379 -5.38E-04
    22 OT DIIS     0.80E-01   11.5     0.00003771     -6894.1212108625 -9.44E-05
    23 OT DIIS     0.80E-01   11.5     0.00003540     -6894.1213754198 -1.65E-04
    24 OT DIIS     0.80E-01   11.6     0.00003255     -6894.1214998829 -1.24E-04
    25 OT DIIS     0.80E-01   11.4     0.00003069     -6894.1216591218 -1.59E-04
    26 OT DIIS     0.80E-01   11.6     0.00002931     -6894.1219286304 -2.70E-04
    27 OT DIIS     0.80E-01   11.5     0.00002973     -6894.1220429722 -1.14E-04
    28 OT DIIS     0.80E-01   11.6     0.00002943     -6894.1222366260 -1.94E-04
    29 OT DIIS     0.80E-01   11.7     0.00002975     -6894.1225685026 -3.32E-04
    30 OT DIIS     0.80E-01   11.4     0.00003122     -6894.1227457710 -1.77E-04
    31 OT DIIS     0.80E-01   11.5     0.00003174     -6894.1229770314 -2.31E-04
    32 OT DIIS     0.80E-01   11.7     0.00003125     -6894.1231453773 -1.68E-04
    33 OT DIIS     0.80E-01   11.5     0.00003071     -6894.1233853333 -2.40E-04
    34 OT DIIS     0.80E-01   11.6     0.00002918     -6894.1235525271 -1.67E-04
    35 OT DIIS     0.80E-01   11.5     0.00002920     -6894.1236569863 -1.04E-04
    36 OT DIIS     0.80E-01   11.6     0.00002803     -6894.1237415603 -8.46E-05
    37 OT DIIS     0.80E-01   11.4     0.00002712     -6894.1239486078 -2.07E-04
    38 OT DIIS     0.80E-01   11.6     0.00002715     -6894.1240592472 -1.11E-04
    39 OT DIIS     0.80E-01   11.6     0.00002712     -6894.1242134675 -1.54E-04
    40 OT DIIS     0.80E-01   11.6     0.00002695     -6894.1243549635 -1.41E-04
    41 OT DIIS     0.80E-01   11.5     0.00002724     -6894.1246010906 -2.46E-04
    42 OT DIIS     0.80E-01   11.5     0.00002718     -6894.1247491250 -1.48E-04
    43 OT DIIS     0.80E-01   11.5     0.00002820     -6894.1249768360 -2.28E-04
    44 OT DIIS     0.80E-01   11.4     0.00002830     -6894.1250786911 -1.02E-04
    45 OT DIIS     0.80E-01   11.6     0.00002763     -6894.1252613074 -1.83E-04
    46 OT DIIS     0.80E-01   11.5     0.00002742     -6894.1253556074 -9.43E-05
    47 OT DIIS     0.80E-01   11.6     0.00002677     -6894.1254593569 -1.04E-04
    48 OT DIIS     0.80E-01   11.5     0.00002567     -6894.1255375424 -7.82E-05
    49 OT DIIS     0.80E-01   11.6     0.00002512     -6894.1257128219 -1.75E-04
    50 OT DIIS     0.80E-01   11.7     0.00002468     -6894.1257826228 -6.98E-05
    51 OT DIIS     0.80E-01   11.6     0.00002491     -6894.1259780882 -1.95E-04
    52 OT DIIS     0.80E-01   11.5     0.00002543     -6894.1261007280 -1.23E-04
    53 OT DIIS     0.80E-01   11.6     0.00002558     -6894.1262721552 -1.71E-04
    54 OT DIIS     0.80E-01   11.6     0.00002627     -6894.1264249578 -1.53E-04
    55 OT DIIS     0.80E-01   11.6     0.00002664     -6894.1265573925 -1.32E-04
    56 OT DIIS     0.80E-01   11.7     0.00002612     -6894.1266448400 -8.74E-05
    57 OT DIIS     0.80E-01   11.5     0.00002545     -6894.1268254409 -1.81E-04
    58 OT DIIS     0.80E-01   11.6     0.00002454     -6894.1268130295  1.24E-05
    59 OT DIIS     0.80E-01   11.5     0.00002395     -6894.1269822834 -1.69E-04
    60 OT DIIS     0.80E-01   11.7     0.00002381     -6894.1270661582 -8.39E-05
    61 OT DIIS     0.80E-01   11.5     0.00002343     -6894.1271692755 -1.03E-04
    62 OT DIIS     0.80E-01   11.5     0.00002356     -6894.1272972849 -1.28E-04
    63 OT DIIS     0.80E-01   11.5     0.00002392     -6894.1274259482 -1.29E-04
    64 OT DIIS     0.80E-01   11.7     0.00002418     -6894.1275454729 -1.20E-04
    65 OT DIIS     0.80E-01   11.5     0.00002428     -6894.1277437200 -1.98E-04
    66 OT DIIS     0.80E-01   11.6     0.00002442     -6894.1277425977  1.12E-06
    67 OT DIIS     0.80E-01   11.6     0.00002401     -6894.1279364128 -1.94E-04
    68 OT DIIS     0.80E-01   11.7     0.00002412     -6894.1280251467 -8.87E-05
    69 OT DIIS     0.80E-01   11.5     0.00002340     -6894.1280730578 -4.79E-05
    70 OT DIIS     0.80E-01   11.7     0.00002285     -6894.1281717555 -9.87E-05
    71 OT DIIS     0.80E-01   11.6     0.00002248     -6894.1282606563 -8.89E-05
    72 OT DIIS     0.80E-01   11.6     0.00002223     -6894.1283488350 -8.82E-05
    73 OT DIIS     0.80E-01   11.4     0.00002212     -6894.1284971622 -1.48E-04
    74 OT DIIS     0.80E-01   11.5     0.00002244     -6894.1285284508 -3.13E-05
    75 OT DIIS     0.80E-01   11.6     0.00002232     -6894.1287085256 -1.80E-04
    76 OT DIIS     0.80E-01   11.6     0.00002310     -6894.1288474394 -1.39E-04
    77 OT DIIS     0.80E-01   11.6     0.00002320     -6894.1288968114 -4.94E-05
    78 OT DIIS     0.80E-01   11.6     0.00002303     -6894.1290013043 -1.04E-04
    79 OT DIIS     0.80E-01   11.5     0.00002270     -6894.1290795628 -7.83E-05
    80 OT DIIS     0.80E-01   11.5     0.00002214     -6894.1291526597 -7.31E-05
    81 OT DIIS     0.80E-01   11.6     0.00002148     -6894.1292643130 -1.12E-04
    82 OT DIIS     0.80E-01   11.5     0.00002128     -6894.1292770917 -1.28E-05
    83 OT DIIS     0.80E-01   11.4     0.00002072     -6894.1293982120 -1.21E-04
    84 OT DIIS     0.80E-01   11.5     0.00002103     -6894.1295233638 -1.25E-04
    85 OT DIIS     0.80E-01   11.5     0.00002134     -6894.1295835830 -6.02E-05
    86 OT DIIS     0.80E-01   11.7     0.00002156     -6894.1296965060 -1.13E-04
    87 OT DIIS     0.80E-01   11.5     0.00002184     -6894.1297975913 -1.01E-04
    88 OT DIIS     0.80E-01   11.6     0.00002191     -6894.1298959930 -9.84E-05
    89 OT DIIS     0.80E-01   11.5     0.00002152     -6894.1299929876 -9.70E-05
    90 OT DIIS     0.80E-01   11.5     0.00002150     -6894.1300057648 -1.28E-05
    91 OT DIIS     0.80E-01   11.6     0.00002049     -6894.1300903289 -8.46E-05
    92 OT DIIS     0.80E-01   11.5     0.00002030     -6894.1301996113 -1.09E-04
    93 OT DIIS     0.80E-01   11.5     0.00002017     -6894.1302365144 -3.69E-05
    94 OT DIIS     0.80E-01   11.6     0.00001995     -6894.1303183793 -8.19E-05
    95 OT DIIS     0.80E-01   11.6     0.00001999     -6894.1304051182 -8.67E-05
    96 OT DIIS     0.80E-01   11.7     0.00002019     -6894.1305079205 -1.03E-04
    97 OT DIIS     0.80E-01   11.5     0.00002029     -6894.1306009956 -9.31E-05
    98 OT DIIS     0.80E-01   11.5     0.00002091     -6894.1306672546 -6.63E-05
    99 OT DIIS     0.80E-01   11.5     0.00002037     -6894.1307390084 -7.18E-05
   100 OT DIIS     0.80E-01   11.5     0.00002033     -6894.1308562126 -1.17E-04

  Leaving inner SCF loop after reaching   100 steps.


  Electronic density on regular grids:      -2431.9999999979        0.0000000021
  Core density on regular grids:             2431.9999999988       -0.0000000012
  Total charge density on r-space grids:        0.0000000009
  Total charge density g-space grids:           0.0000000009

  Overlap energy of the core charge distribution:               0.02315571458300
  Self energy of the core charge distribution:             -16017.19408509233290
  Core Hamiltonian energy:                                   4310.13724370504951
  Hartree energy:                                            6138.34859269068420
  Exchange-correlation energy:                              -1323.86108672753630
  Dispersion energy:                                           -1.58467650300656

  Total energy:                                             -6894.13085621255959

  outer SCF iter =    2 RMS gradient =   0.20E-04 energy =      -6894.1308562126

  ----------------------------------- OT ---------------------------------------
  Minimizer      : DIIS                : direct inversion
                                         in the iterative subspace
                                         using   7 DIIS vectors
                                         safer DIIS on
  Preconditioner : FULL_SINGLE_INVERSE : inversion of 
                                         H + eS - 2*(Sc)(c^T*H*c+const)(Sc)^T
  Precond_solver : DEFAULT
  stepsize       :    0.08000000                  energy_gap     :    0.08000000
  eps_taylor     :   0.10000E-15                  max_taylor     :             4
  ----------------------------------- OT ---------------------------------------

  Step     Update method      Time    Convergence         Total energy    Change
  ------------------------------------------------------------------------------
     1 OT DIIS     0.80E-01   29.7     0.00002058     -6894.1308802221 -2.40E-05
     2 OT DIIS     0.80E-01   10.9     0.00006040     -6894.1309295276 -4.93E-05
     3 OT DIIS     0.80E-01   11.1     0.00001893     -6894.1310640948 -1.35E-04
     4 OT DIIS     0.80E-01   11.0     0.00001808     -6894.1311056009 -4.15E-05
     5 OT DIIS     0.80E-01   11.5     0.00002385     -6894.1317057775 -6.00E-04
     6 OT DIIS     0.80E-01   11.7     0.00003768     -6894.1346160699 -2.91E-03
     7 OT DIIS     0.80E-01   11.7     0.00003307     -6894.1348403517 -2.24E-04
     8 OT SD       0.80E-01   11.6     0.00003510     -6894.1348891011 -4.87E-05
     9 OT SD       0.80E-01   11.4     0.00005749     -6894.1349174203 -2.83E-05
    10 OT DIIS     0.80E-01   11.1     0.00022465     -6894.1330833421  1.83E-03
    11 OT DIIS     0.80E-01   11.6     0.00002892     -6894.1340755254 -9.92E-04
    12 OT DIIS     0.80E-01   11.5     0.00002077     -6894.1353827865 -1.31E-03
    13 OT SD       0.80E-01   11.5     0.00002305     -6894.1359757033 -5.93E-04
    14 OT DIIS     0.80E-01   11.7     0.00010265     -6894.1357000330  2.76E-04
    15 OT SD       0.80E-01   11.6     0.00001581     -6894.1359333108 -2.33E-04
    16 OT DIIS     0.80E-01   11.5     0.00005426     -6894.1359076893  2.56E-05
    17 OT DIIS     0.80E-01   11.5     0.00001315     -6894.1360343607 -1.27E-04
    18 OT SD       0.80E-01   11.4     0.00001319     -6894.1362775666 -2.43E-04
    19 OT DIIS     0.80E-01   11.5     0.00003328     -6894.1363097659 -3.22E-05
    20 OT DIIS     0.80E-01   11.6     0.00001347     -6894.1366318475 -3.22E-04
    21 OT DIIS     0.80E-01   11.8     0.00001303     -6894.1366824747 -5.06E-05
    22 OT DIIS     0.80E-01   11.7     0.00001675     -6894.1370271791 -3.45E-04
    23 OT DIIS     0.80E-01   11.4     0.00001386     -6894.1371792152 -1.52E-04
    24 OT SD       0.80E-01   11.5     0.00001441     -6894.1377159613 -5.37E-04
    25 OT SD       0.80E-01   11.5     0.00004986     -6894.1376793045  3.67E-05
    26 OT DIIS     0.80E-01   11.6     0.00028433     -6894.1349851707  2.69E-03
    27 OT DIIS     0.80E-01   11.7     0.00001157     -6894.1381103960 -3.13E-03
    28 OT DIIS     0.80E-01   11.5     0.00001205     -6894.1383715662 -2.61E-04
    29 OT DIIS     0.80E-01   11.6     0.00001188     -6894.1383878891 -1.63E-05
    30 OT SD       0.80E-01   11.5     0.00001301     -6894.1386327815 -2.45E-04
    31 OT DIIS     0.80E-01   11.4     0.00005509     -6894.1385671543  6.56E-05
    32 OT DIIS     0.80E-01   11.7     0.00001019     -6894.1386076550 -4.05E-05
    33 OT DIIS     0.80E-01   11.4     0.00000934     -6894.1388328111 -2.25E-04
    34 OT DIIS     0.80E-01   11.5     0.00000907     -6894.1389530755 -1.20E-04
    35 OT DIIS     0.80E-01   11.5     0.00000954     -6894.1389906927 -3.76E-05
    36 OT DIIS     0.80E-01   11.5     0.00001115     -6894.1392011190 -2.10E-04
    37 OT SD       0.80E-01   11.6     0.00001040     -6894.1394287046 -2.28E-04
    38 OT SD       0.80E-01   11.8     0.00003107     -6894.1394204353  8.27E-06
    39 OT DIIS     0.80E-01   11.5     0.00016531     -6894.1384880881  9.32E-04
    40 OT DIIS     0.80E-01   11.5     0.00000884     -6894.1395738170 -1.09E-03
    41 OT DIIS     0.80E-01   11.5     0.00000879     -6894.1396756859 -1.02E-04
    42 OT DIIS     0.80E-01   11.6     0.00000742     -6894.1396981161 -2.24E-05
    43 OT DIIS     0.80E-01   11.6     0.00000793     -6894.1397798392 -8.17E-05
    44 OT SD       0.80E-01   11.6     0.00000798     -6894.1399513289 -1.71E-04
    45 OT DIIS     0.80E-01   11.4     0.00001960     -6894.1399568689 -5.54E-06
    46 OT DIIS     0.80E-01   11.6     0.00000716     -6894.1399600067 -3.14E-06
    47 OT DIIS     0.80E-01   11.5     0.00000826     -6894.1401242973 -1.64E-04
    48 OT SD       0.80E-01   11.6     0.00000877     -6894.1401343191 -1.00E-05
    49 OT DIIS     0.80E-01   11.6     0.00003708     -6894.1401035296  3.08E-05
    50 OT DIIS     0.80E-01   11.4     0.00000870     -6894.1402111669 -1.08E-04
    51 OT SD       0.80E-01   11.5     0.00000709     -6894.1402998791 -8.87E-05
    52 OT DIIS     0.80E-01   11.6     0.00002467     -6894.1402930496  6.83E-06
    53 OT DIIS     0.80E-01   11.6     0.00000708     -6894.1403671680 -7.41E-05
    54 OT SD       0.80E-01   11.7     0.00000610     -6894.1404725123 -1.05E-04
    55 OT SD       0.80E-01   11.6     0.00001280     -6894.1404793178 -6.81E-06
    56 OT DIIS     0.80E-01   11.7     0.00006278     -6894.1403530986  1.26E-04
    57 OT DIIS     0.80E-01   11.5     0.00000553     -6894.1405478725 -1.95E-04
    58 OT SD       0.80E-01   11.6     0.00000585     -6894.1405631635 -1.53E-05
    59 OT DIIS     0.80E-01   11.5     0.00001907     -6894.1405622985  8.65E-07
    60 OT DIIS     0.80E-01   11.5     0.00000547     -6894.1406412081 -7.89E-05
    61 OT SD       0.80E-01   11.5     0.00000550     -6894.1407023606 -6.12E-05
    62 OT SD       0.80E-01   11.4     0.00001520     -6894.1407048735 -2.51E-06
    63 OT DIIS     0.80E-01   11.7     0.00008355     -6894.1404748581  2.30E-04
    64 OT DIIS     0.80E-01   11.5     0.00000498     -6894.1407517096 -2.77E-04
    65 OT SD       0.80E-01   11.4     0.00000501     -6894.1407724945 -2.08E-05
    66 OT DIIS     0.80E-01   11.4     0.00001386     -6894.1407752713 -2.78E-06
    67 OT DIIS     0.80E-01   11.6     0.00000479     -6894.1408377546 -6.25E-05
    68 OT SD       0.80E-01   11.6     0.00000496     -6894.1408998022 -6.20E-05
    69 OT SD       0.80E-01   11.5     0.00001270     -6894.1409026890 -2.89E-06
    70 OT DIIS     0.80E-01   11.6     0.00006785     -6894.1407510139  1.52E-04
    71 OT DIIS     0.80E-01   11.5     0.00000464     -6894.1409356750 -1.85E-04
    72 OT DIIS     0.80E-01   11.6     0.00000445     -6894.1409431109 -7.44E-06
    73 OT DIIS     0.80E-01   11.5     0.00000410     -6894.1409448069 -1.70E-06
    74 OT DIIS     0.80E-01   11.5     0.00000449     -6894.1409644505 -1.96E-05
    75 OT DIIS     0.80E-01   11.5     0.00000451     -6894.1410124135 -4.80E-05
    76 OT DIIS     0.80E-01   11.4     0.00000417     -6894.1410117305  6.83E-07
    77 OT DIIS     0.80E-01   11.4     0.00000428     -6894.1410519206 -4.02E-05
    78 OT SD       0.80E-01   11.5     0.00000456     -6894.1411381428 -8.62E-05
    79 OT SD       0.80E-01   11.6     0.00001340     -6894.1411376070  5.36E-07
    80 OT DIIS     0.80E-01   11.5     0.00007447     -6894.1409524703  1.85E-04
    81 OT DIIS     0.80E-01   11.5     0.00000395     -6894.1411776311 -2.25E-04
    82 OT DIIS     0.80E-01   11.5     0.00000434     -6894.1411781032 -4.72E-07
    83 OT SD       0.80E-01   11.5     0.00000366     -6894.1411947385 -1.66E-05
    84 OT DIIS     0.80E-01   11.6     0.00001041     -6894.1411957298 -9.91E-07
    85 OT SD       0.80E-01   11.5     0.00000338     -6894.1412484129 -5.27E-05
    86 OT DIIS     0.80E-01   11.6     0.00000844     -6894.1412503472 -1.93E-06
    87 OT DIIS     0.80E-01   11.4     0.00000336     -6894.1412727730 -2.24E-05
    88 OT DIIS     0.80E-01   11.5     0.00000340     -6894.1413071104 -3.43E-05
    89 OT SD       0.80E-01   11.5     0.00000314     -6894.1413230855 -1.60E-05
    90 OT SD       0.80E-01   11.4     0.00000538     -6894.1413262062 -3.12E-06
    91 OT DIIS     0.80E-01   11.4     0.00002616     -6894.1413066100  1.96E-05
    92 OT SD       0.80E-01   11.5     0.00000298     -6894.1413398015 -3.32E-05
    93 OT DIIS     0.80E-01   11.5     0.00000641     -6894.1413420509 -2.25E-06
    94 OT DIIS     0.80E-01   11.6     0.00000311     -6894.1413602143 -1.82E-05
    95 OT DIIS     0.80E-01   11.7     0.00000285     -6894.1413923618 -3.21E-05
    96 OT SD       0.80E-01   11.5     0.00000368     -6894.1413930682 -7.06E-07
    97 OT DIIS     0.80E-01   11.5     0.00001557     -6894.1413880399  5.03E-06
    98 OT DIIS     0.80E-01   11.4     0.00000327     -6894.1414277957 -3.98E-05
    99 OT SD       0.80E-01   11.7     0.00000343     -6894.1414413969 -1.36E-05
   100 OT DIIS     0.80E-01   11.6     0.00001350     -6894.1414380966  3.30E-06

  Leaving inner SCF loop after reaching   100 steps.


  Electronic density on regular grids:      -2431.9999999979        0.0000000021
  Core density on regular grids:             2431.9999999988       -0.0000000012
  Total charge density on r-space grids:        0.0000000009
  Total charge density g-space grids:           0.0000000009

  Overlap energy of the core charge distribution:               0.02315571458300
  Self energy of the core charge distribution:             -16017.19408509233290
  Core Hamiltonian energy:                                   4310.10347754783925
  Hartree energy:                                            6138.37905935145773
  Exchange-correlation energy:                              -1323.86836911512410
  Dispersion energy:                                           -1.58467650300656

  Total energy:                                             -6894.14143809658253

  outer SCF iter =    3 RMS gradient =   0.14E-04 energy =      -6894.1414380966

  ----------------------------------- OT ---------------------------------------
  Minimizer      : DIIS                : direct inversion
                                         in the iterative subspace
                                         using   7 DIIS vectors
                                         safer DIIS on
  Preconditioner : FULL_SINGLE_INVERSE : inversion of 
                                         H + eS - 2*(Sc)(c^T*H*c+const)(Sc)^T
  Precond_solver : DEFAULT
  stepsize       :    0.08000000                  energy_gap     :    0.08000000
  eps_taylor     :   0.10000E-15                  max_taylor     :             4
  ----------------------------------- OT ---------------------------------------

  Step     Update method      Time    Convergence         Total energy    Change
  ------------------------------------------------------------------------------
     1 OT DIIS     0.80E-01   29.8     0.00000309     -6894.1414684483 -3.04E-05
     2 OT DIIS     0.80E-01   10.7     0.00000989     -6894.1414683567  9.16E-08
     3 OT DIIS     0.80E-01   10.8     0.00000283     -6894.1414719887 -3.63E-06
     4 OT DIIS     0.80E-01   11.0     0.00000256     -6894.1414730309 -1.04E-06
     5 OT DIIS     0.80E-01   11.1     0.00000256     -6894.1414751554 -2.12E-06
     6 OT DIIS     0.80E-01   10.9     0.00000250     -6894.1414779457 -2.79E-06
     7 OT DIIS     0.80E-01   11.0     0.00000277     -6894.1414857588 -7.81E-06
     8 OT DIIS     0.80E-01   11.0     0.00000253     -6894.1415002746 -1.45E-05
     9 OT DIIS     0.80E-01   11.0     0.00000274     -6894.1415060677 -5.79E-06
    10 OT DIIS     0.80E-01   11.0     0.00000274     -6894.1415220402 -1.60E-05
    11 OT DIIS     0.80E-01   11.0     0.00000294     -6894.1415282877 -6.25E-06
    12 OT DIIS     0.80E-01   11.0     0.00000234     -6894.1415348467 -6.56E-06
    13 OT DIIS     0.80E-01   11.2     0.00000252     -6894.1415375523 -2.71E-06
    14 OT DIIS     0.80E-01   11.0     0.00000236     -6894.1415405401 -2.99E-06
    15 OT SD       0.80E-01   11.3     0.00000236     -6894.1415447614 -4.22E-06
    16 OT DIIS     0.80E-01   11.1     0.00000774     -6894.1415445864  1.75E-07
    17 OT DIIS     0.80E-01   11.0     0.00000225     -6894.1415494739 -4.89E-06
    18 OT DIIS     0.80E-01   10.9     0.00000224     -6894.1415535052 -4.03E-06
    19 OT SD       0.80E-01   11.1     0.00000248     -6894.1415547534 -1.25E-06
    20 OT DIIS     0.80E-01   11.0     0.00001026     -6894.1415530525  1.70E-06
    21 OT DIIS     0.80E-01   11.1     0.00000236     -6894.1415650218 -1.20E-05
    22 OT SD       0.80E-01   10.9     0.00000204     -6894.1415921291 -2.71E-05
    23 OT DIIS     0.80E-01   11.0     0.00000568     -6894.1415922917 -1.63E-07
    24 OT DIIS     0.80E-01   11.0     0.00000191     -6894.1416012613 -8.97E-06
    25 OT DIIS     0.80E-01   11.0     0.00000183     -6894.1416051713 -3.91E-06
    26 OT DIIS     0.80E-01   11.1     0.00000166     -6894.1416104860 -5.31E-06
    27 OT DIIS     0.80E-01   10.9     0.00000177     -6894.1416106567 -1.71E-07
    28 OT DIIS     0.80E-01   11.1     0.00000171     -6894.1416244142 -1.38E-05
    29 OT SD       0.80E-01   11.1     0.00000177     -6894.1416244176 -3.35E-09
    30 OT DIIS     0.80E-01   11.1     0.00000527     -6894.1416246622 -2.45E-07
    31 OT DIIS     0.80E-01   11.2     0.00000171     -6894.1416379817 -1.33E-05
    32 OT DIIS     0.80E-01   11.0     0.00000174     -6894.1416388824 -9.01E-07
    33 OT SD       0.80E-01   11.0     0.00000161     -6894.1416443527 -5.47E-06
    34 OT DIIS     0.80E-01   11.0     0.00000396     -6894.1416449384 -5.86E-07
    35 OT DIIS     0.80E-01   11.0     0.00000150     -6894.1416575171 -1.26E-05
    36 OT SD       0.80E-01   11.1     0.00000147     -6894.1416622684 -4.75E-06
    37 OT DIIS     0.80E-01   11.2     0.00000210     -6894.1416631819 -9.14E-07
    38 OT DIIS     0.80E-01   11.2     0.00000145     -6894.1416714261 -8.24E-06
    39 OT DIIS     0.80E-01   11.0     0.00000148     -6894.1416763691 -4.94E-06
    40 OT DIIS     0.80E-01   11.1     0.00000159     -6894.1416791811 -2.81E-06
    41 OT DIIS     0.80E-01   11.0     0.00000144     -6894.1416887463 -9.57E-06
    42 OT DIIS     0.80E-01   11.4     0.00000143     -6894.1416942600 -5.51E-06
    43 OT DIIS     0.80E-01   11.2     0.00000141     -6894.1416961653 -1.91E-06
    44 OT DIIS     0.80E-01   11.1     0.00000150     -6894.1416967168 -5.51E-07
    45 OT DIIS     0.80E-01   11.1     0.00000153     -6894.1417067418 -1.00E-05
    46 OT DIIS     0.80E-01   11.1     0.00000142     -6894.1417070515 -3.10E-07
    47 OT DIIS     0.80E-01   11.1     0.00000153     -6894.1417108542 -3.80E-06
    48 OT DIIS     0.80E-01   11.1     0.00000147     -6894.1417238444 -1.30E-05
    49 OT SD       0.80E-01   11.0     0.00000141     -6894.1417238106  3.38E-08
    50 OT DIIS     0.80E-01   11.0     0.00000293     -6894.1417243508 -5.40E-07
    51 OT DIIS     0.80E-01   11.0     0.00000145     -6894.1417295000 -5.15E-06
    52 OT DIIS     0.80E-01   11.1     0.00000140     -6894.1417351485 -5.65E-06
    53 OT SD       0.80E-01   11.1     0.00000145     -6894.1417351854 -3.70E-08
    54 OT DIIS     0.80E-01   11.0     0.00000420     -6894.1417353981 -2.13E-07
    55 OT DIIS     0.80E-01   11.1     0.00000146     -6894.1417551936 -1.98E-05
    56 OT SD       0.80E-01   11.0     0.00000145     -6894.1417569242 -1.73E-06
    57 OT SD       0.80E-01   11.0     0.00000434     -6894.1417570662 -1.42E-07
    58 OT DIIS     0.80E-01   11.1     0.00002513     -6894.1417367894  2.03E-05
    59 OT DIIS     0.80E-01   11.1     0.00000130     -6894.1417647770 -2.80E-05
    60 OT SD       0.80E-01   11.2     0.00000131     -6894.1417683172 -3.54E-06
    61 OT DIIS     0.80E-01   11.6     0.00000297     -6894.1417687574 -4.40E-07
    62 OT DIIS     0.80E-01   11.6     0.00000133     -6894.1417786374 -9.88E-06
    63 OT SD       0.80E-01   11.4     0.00000122     -6894.1417832075 -4.57E-06
    64 OT DIIS     0.80E-01   11.6     0.00000178     -6894.1417838130 -6.05E-07
    65 OT DIIS     0.80E-01   11.5     0.00000127     -6894.1417917772 -7.96E-06
    66 OT SD       0.80E-01   11.4     0.00000118     -6894.1417963230 -4.55E-06
    67 OT DIIS     0.80E-01   11.5     0.00000163     -6894.1417969124 -5.89E-07
    68 OT DIIS     0.80E-01   11.5     0.00000121     -6894.1418074105 -1.05E-05
    69 OT DIIS     0.80E-01   11.6     0.00000118     -6894.1418112508 -3.84E-06
    70 OT SD       0.80E-01   11.4     0.00000119     -6894.1418125136 -1.26E-06
    71 OT SD       0.80E-01   11.6     0.00000187     -6894.1418130571 -5.44E-07
    72 OT DIIS     0.80E-01   11.5     0.00000883     -6894.1418110722  1.98E-06
    73 OT SD       0.80E-01   11.5     0.00000116     -6894.1418176343 -6.56E-06
    74 OT DIIS     0.80E-01   11.6     0.00000200     -6894.1418181345 -5.00E-07
    75 OT DIIS     0.80E-01   11.6     0.00000114     -6894.1418244066 -6.27E-06
    76 OT DIIS     0.80E-01   11.5     0.00000119     -6894.1418346219 -1.02E-05
    77 OT SD       0.80E-01   11.5     0.00000124     -6894.1418415503 -6.93E-06
    78 OT SD       0.80E-01   11.5     0.00000251     -6894.1418419068 -3.56E-07
    79 OT DIIS     0.80E-01   11.7     0.00001193     -6894.1418373559  4.55E-06
    80 OT DIIS     0.80E-01   11.7     0.00000118     -6894.1418510122 -1.37E-05
    81 OT DIIS     0.80E-01   11.3     0.00000114     -6894.1418557551 -4.74E-06
    82 OT DIIS     0.80E-01   11.5     0.00000114     -6894.1418593049 -3.55E-06
    83 OT DIIS     0.80E-01   11.5     0.00000108     -6894.1418620523 -2.75E-06
    84 OT DIIS     0.80E-01   11.7     0.00000107     -6894.1418647323 -2.68E-06
    85 OT DIIS     0.80E-01   11.4     0.00000110     -6894.1418659210 -1.19E-06
    86 OT DIIS     0.80E-01   11.6     0.00000104     -6894.1418707433 -4.82E-06
    87 OT DIIS     0.80E-01   11.6     0.00000108     -6894.1418744538 -3.71E-06
    88 OT DIIS     0.80E-01   11.4     0.00000114     -6894.1418816907 -7.24E-06
    89 OT SD       0.80E-01   11.6     0.00000108     -6894.1418845627 -2.87E-06
    90 OT SD       0.80E-01   11.6     0.00000220     -6894.1418849145 -3.52E-07
    91 OT DIIS     0.80E-01   11.4     0.00001213     -6894.1418806283  4.29E-06
    92 OT DIIS     0.80E-01   11.6     0.00000100     -6894.1418886613 -8.03E-06
    93 OT SD       0.80E-01   11.4     0.00000103     -6894.1418924667 -3.81E-06
    94 OT DIIS     0.80E-01   11.5     0.00000174     -6894.1418928597 -3.93E-07
    95 OT DIIS     0.80E-01   11.6     0.00000098     -6894.1418982562 -5.40E-06

  *** SCF run converged in    95 steps ***


  Electronic density on regular grids:      -2431.9999999979        0.0000000021
  Core density on regular grids:             2431.9999999988       -0.0000000012
  Total charge density on r-space grids:        0.0000000010
  Total charge density g-space grids:           0.0000000010

  Overlap energy of the core charge distribution:               0.02315571458300
  Self energy of the core charge distribution:             -16017.19408509233290
  Core Hamiltonian energy:                                   4310.09934873485236
  Hartree energy:                                            6138.38170932078174
  Exchange-correlation energy:                              -1323.86735043111344
  Dispersion energy:                                           -1.58467650300656

  Total energy:                                             -6894.14189825623453

  outer SCF iter =    4 RMS gradient =   0.98E-06 energy =      -6894.1418982562
  outer SCF loop converged in   4 iterations or  395 steps


 ENERGY| Total FORCE_EVAL ( QS ) energy [hartree]          -6894.141902807492443

 Number of electrons:                                                       2432
 Number of occupied orbitals:                                               1216
 Number of molecular orbitals:                                              1216

 Number of orbital functions:                                               4983
 Number of independent orbital functions:                                   4983

 Extrapolation method: ASPC


 SCF WAVEFUNCTION OPTIMIZATION

  ----------------------------------- OT ---------------------------------------
  Minimizer      : DIIS                : direct inversion
                                         in the iterative subspace
                                         using   7 DIIS vectors
                                         safer DIIS on
  Preconditioner : FULL_SINGLE_INVERSE : inversion of 
                                         H + eS - 2*(Sc)(c^T*H*c+const)(Sc)^T
  Precond_solver : DEFAULT
  stepsize       :    0.08000000                  energy_gap     :    0.08000000
  eps_taylor     :   0.10000E-15                  max_taylor     :             4
  ----------------------------------- OT ---------------------------------------

  Step     Update method      Time    Convergence         Total energy    Change
  ------------------------------------------------------------------------------
     1 OT DIIS     0.80E-01   15.7     0.00535671     -6889.1128442124 -6.89E+03
     2 OT DIIS     0.80E-01   11.5     0.00438382     -6899.7665422574 -1.07E+01
     3 OT DIIS     0.80E-01   11.4     0.00448673     -6902.8069804719 -3.04E+00
     4 OT DIIS     0.80E-01   11.5     0.00207280     -6906.7077387881 -3.90E+00
     5 OT DIIS     0.80E-01   11.3     0.00193899     -6907.2922357518 -5.84E-01
     6 OT DIIS     0.80E-01   11.4     0.00180684     -6907.5363250372 -2.44E-01
     7 OT DIIS     0.80E-01   11.5     0.00121665     -6907.7395626354 -2.03E-01
     8 OT DIIS     0.80E-01   11.5     0.00067033     -6907.9431128622 -2.04E-01
     9 OT DIIS     0.80E-01   11.5     0.00066566     -6908.0149559405 -7.18E-02
    10 OT DIIS     0.80E-01   11.5     0.00061112     -6908.0685626241 -5.36E-02
    11 OT DIIS     0.80E-01   11.4     0.00036020     -6908.1247249835 -5.62E-02
    12 OT DIIS     0.80E-01   11.4     0.00032018     -6908.1562772702 -3.16E-02
    13 OT DIIS     0.80E-01   11.6     0.00027868     -6908.1855982256 -2.93E-02
    14 OT DIIS     0.80E-01   11.5     0.00023909     -6908.2082548583 -2.27E-02
    15 OT DIIS     0.80E-01   11.7     0.00021329     -6908.2273563578 -1.91E-02
    16 OT DIIS     0.80E-01   11.5     0.00019681     -6908.2475211349 -2.02E-02
    17 OT DIIS     0.80E-01   11.5     0.00017522     -6908.2634758189 -1.60E-02
    18 OT DIIS     0.80E-01   11.5     0.00014969     -6908.2792457900 -1.58E-02
    19 OT DIIS     0.80E-01   11.6     0.00015861     -6908.2883500207 -9.10E-03
    20 OT DIIS     0.80E-01   11.5     0.00012229     -6908.2992454846 -1.09E-02
    21 OT DIIS     0.80E-01   11.4     0.00011026     -6908.3086017491 -9.36E-03
    22 OT DIIS     0.80E-01   11.6     0.00010662     -6908.3140201647 -5.42E-03
    23 OT DIIS     0.80E-01   11.6     0.00009441     -6908.3192432577 -5.22E-03
    24 OT DIIS     0.80E-01   11.5     0.00008116     -6908.3229606509 -3.72E-03
    25 OT DIIS     0.80E-01   11.6     0.00007346     -6908.3260935319 -3.13E-03
    26 OT DIIS     0.80E-01   11.5     0.00006422     -6908.3292074252 -3.11E-03
    27 OT DIIS     0.80E-01   11.5     0.00006605     -6908.3312252944 -2.02E-03
    28 OT DIIS     0.80E-01   11.5     0.00005489     -6908.3329707022 -1.75E-03
    29 OT DIIS     0.80E-01   11.5     0.00004900     -6908.3349446799 -1.97E-03
    30 OT DIIS     0.80E-01   11.5     0.00004708     -6908.3361750586 -1.23E-03
    31 OT DIIS     0.80E-01   11.5     0.00004478     -6908.3374595988 -1.28E-03
    32 OT DIIS     0.80E-01   11.6     0.00004125     -6908.3384152874 -9.56E-04
    33 OT DIIS     0.80E-01   11.7     0.00003936     -6908.3394208335 -1.01E-03
    34 OT DIIS     0.80E-01   11.6     0.00003459     -6908.3403275531 -9.07E-04
    35 OT DIIS     0.80E-01   11.5     0.00003497     -6908.3410682644 -7.41E-04
    36 OT DIIS     0.80E-01   11.6     0.00003166     -6908.3416260998 -5.58E-04
    37 OT DIIS     0.80E-01   11.5     0.00002850     -6908.3423644942 -7.38E-04
    38 OT DIIS     0.80E-01   11.5     0.00002841     -6908.3428920762 -5.28E-04
    39 OT DIIS     0.80E-01   11.6     0.00002745     -6908.3434572576 -5.65E-04
    40 OT DIIS     0.80E-01   11.6     0.00002531     -6908.3438502044 -3.93E-04
    41 OT DIIS     0.80E-01   11.5     0.00002423     -6908.3442963359 -4.46E-04
    42 OT DIIS     0.80E-01   11.5     0.00002259     -6908.3447083950 -4.12E-04
    43 OT DIIS     0.80E-01   11.5     0.00002252     -6908.3450729766 -3.65E-04
    44 OT DIIS     0.80E-01   11.6     0.00002130     -6908.3453609834 -2.88E-04
    45 OT DIIS     0.80E-01   11.7     0.00001973     -6908.3457620302 -4.01E-04
    46 OT DIIS     0.80E-01   11.5     0.00001929     -6908.3460703139 -3.08E-04
    47 OT DIIS     0.80E-01   11.5     0.00001890     -6908.3463755955 -3.05E-04
    48 OT DIIS     0.80E-01   11.5     0.00001798     -6908.3466115363 -2.36E-04
    49 OT DIIS     0.80E-01   11.6     0.00001748     -6908.3469056718 -2.94E-04
    50 OT DIIS     0.80E-01   11.8     0.00001661     -6908.3471961599 -2.90E-04
    51 OT DIIS     0.80E-01   11.6     0.00001671     -6908.3474463822 -2.50E-04
    52 OT DIIS     0.80E-01   11.5     0.00001591     -6908.3476447947 -1.98E-04
    53 OT DIIS     0.80E-01   11.4     0.00001472     -6908.3479017031 -2.57E-04
    54 OT DIIS     0.80E-01   11.7     0.00001452     -6908.3481326233 -2.31E-04
    55 OT DIIS     0.80E-01   11.5     0.00001460     -6908.3483496978 -2.17E-04
    56 OT DIIS     0.80E-01   11.7     0.00001379     -6908.3485223499 -1.73E-04
    57 OT DIIS     0.80E-01   11.5     0.00001336     -6908.3487271655 -2.05E-04
    58 OT DIIS     0.80E-01   11.3     0.00001284     -6908.3489230922 -1.96E-04
    59 OT DIIS     0.80E-01   11.6     0.00001278     -6908.3490843601 -1.61E-04
    60 OT DIIS     0.80E-01   11.6     0.00001237     -6908.3492156246 -1.31E-04
    61 OT DIIS     0.80E-01   11.5     0.00001176     -6908.3493959980 -1.80E-04
    62 OT DIIS     0.80E-01   11.5     0.00001150     -6908.3495598143 -1.64E-04
    63 OT DIIS     0.80E-01   11.5     0.00001153     -6908.3497099895 -1.50E-04
    64 OT DIIS     0.80E-01   11.5     0.00001105     -6908.3498243829 -1.14E-04
    65 OT DIIS     0.80E-01   11.5     0.00001074     -6908.3499681927 -1.44E-04
    66 OT DIIS     0.80E-01   11.5     0.00001046     -6908.3501107179 -1.43E-04
    67 OT DIIS     0.80E-01   11.5     0.00001054     -6908.3502409717 -1.30E-04
    68 OT DIIS     0.80E-01   11.6     0.00001032     -6908.3503473110 -1.06E-04
    69 OT DIIS     0.80E-01   11.5     0.00000971     -6908.3504867525 -1.39E-04
    70 OT DIIS     0.80E-01   11.5     0.00000953     -6908.3506149061 -1.28E-04
    71 OT DIIS     0.80E-01   11.5     0.00000959     -6908.3507360152 -1.21E-04
    72 OT DIIS     0.80E-01   11.6     0.00000929     -6908.3508322251 -9.62E-05
    73 OT DIIS     0.80E-01   11.5     0.00000910     -6908.3509620922 -1.30E-04
    74 OT DIIS     0.80E-01   11.5     0.00000887     -6908.3510880859 -1.26E-04
    75 OT DIIS     0.80E-01   11.6     0.00000878     -6908.3511915950 -1.04E-04
    76 OT DIIS     0.80E-01   11.6     0.00000857     -6908.3512738656 -8.23E-05
    77 OT DIIS     0.80E-01   11.5     0.00000829     -6908.3513879749 -1.14E-04
    78 OT DIIS     0.80E-01   11.6     0.00000814     -6908.3515003798 -1.12E-04
    79 OT DIIS     0.80E-01   11.5     0.00000820     -6908.3516036313 -1.03E-04
    80 OT DIIS     0.80E-01   11.6     0.00000795     -6908.3516827163 -7.91E-05
    81 OT DIIS     0.80E-01   11.5     0.00000767     -6908.3517772115 -9.45E-05
    82 OT DIIS     0.80E-01   11.5     0.00000750     -6908.3518647977 -8.76E-05
    83 OT DIIS     0.80E-01   11.5     0.00000759     -6908.3519463244 -8.15E-05
    84 OT DIIS     0.80E-01   11.4     0.00000761     -6908.3520209407 -7.46E-05
    85 OT DIIS     0.80E-01   11.7     0.00000714     -6908.3521124183 -9.15E-05
    86 OT DIIS     0.80E-01   11.5     0.00000697     -6908.3521908329 -7.84E-05
    87 OT DIIS     0.80E-01   11.5     0.00000689     -6908.3522505557 -5.97E-05
    88 OT DIIS     0.80E-01   11.5     0.00000677     -6908.3523033274 -5.28E-05
    89 OT DIIS     0.80E-01   11.5     0.00000676     -6908.3523863555 -8.30E-05
    90 OT DIIS     0.80E-01   11.6     0.00000680     -6908.3524725478 -8.62E-05
    91 OT DIIS     0.80E-01   11.7     0.00000661     -6908.3525460434 -7.35E-05
    92 OT DIIS     0.80E-01   11.3     0.00000628     -6908.3525800934 -3.40E-05
    93 OT DIIS     0.80E-01   11.4     0.00000616     -6908.3526252842 -4.52E-05
    94 OT DIIS     0.80E-01   11.6     0.00000619     -6908.3526995107 -7.42E-05
    95 OT DIIS     0.80E-01   11.5     0.00000632     -6908.3527799404 -8.04E-05
    96 OT DIIS     0.80E-01   11.6     0.00000650     -6908.3528642999 -8.44E-05
    97 OT DIIS     0.80E-01   11.5     0.00000617     -6908.3529351314 -7.08E-05
    98 OT DIIS     0.80E-01   11.6     0.00000576     -6908.3529758319 -4.07E-05
    99 OT DIIS     0.80E-01   11.4     0.00000564     -6908.3529846664 -8.83E-06
   100 OT DIIS     0.80E-01   11.5     0.00000585     -6908.3530298005 -4.51E-05

  Leaving inner SCF loop after reaching   100 steps.


  Electronic density on regular grids:      -2431.9999999973        0.0000000027
  Core density on regular grids:             2431.9999999988       -0.0000000012
  Total charge density on r-space grids:        0.0000000016
  Total charge density g-space grids:           0.0000000016

  Overlap energy of the core charge distribution:               0.02836073297811
  Self energy of the core charge distribution:             -16017.19408509233290
  Core Hamiltonian energy:                                   4280.17475412244676
  Hartree energy:                                            6151.48114688894748
  Exchange-correlation energy:                              -1321.25131695251775
  Dispersion energy:                                           -1.59188950002781

  Total energy:                                             -6908.35302980050528

  outer SCF iter =    1 RMS gradient =   0.59E-05 energy =      -6908.3530298005

  ----------------------------------- OT ---------------------------------------
  Minimizer      : DIIS                : direct inversion
                                         in the iterative subspace
                                         using   7 DIIS vectors
                                         safer DIIS on
  Preconditioner : FULL_SINGLE_INVERSE : inversion of 
                                         H + eS - 2*(Sc)(c^T*H*c+const)(Sc)^T
  Precond_solver : DEFAULT
  stepsize       :    0.08000000                  energy_gap     :    0.08000000
  eps_taylor     :   0.10000E-15                  max_taylor     :             4
  ----------------------------------- OT ---------------------------------------

  Step     Update method      Time    Convergence         Total energy    Change
  ------------------------------------------------------------------------------
     1 OT DIIS     0.80E-01   31.3     0.00001129     -6908.3530920439 -6.22E-05
     2 OT DIIS     0.80E-01   11.0     0.00001234     -6908.3531475794 -5.55E-05
     3 OT DIIS     0.80E-01   10.9     0.00001244     -6908.3531647642 -1.72E-05
     4 OT DIIS     0.80E-01   11.0     0.00001091     -6908.3532253292 -6.06E-05
     5 OT DIIS     0.80E-01   11.1     0.00001022     -6908.3533403823 -1.15E-04
     6 OT DIIS     0.80E-01   11.1     0.00000996     -6908.3534068328 -6.65E-05
     7 OT DIIS     0.80E-01   11.0     0.00000893     -6908.3534689289 -6.21E-05
     8 OT DIIS     0.80E-01   11.2     0.00000825     -6908.3535281548 -5.92E-05
     9 OT DIIS     0.80E-01   11.0     0.00000813     -6908.3535508164 -2.27E-05
    10 OT DIIS     0.80E-01   11.0     0.00000774     -6908.3536028573 -5.20E-05
    11 OT DIIS     0.80E-01   11.1     0.00000787     -6908.3536499126 -4.71E-05
    12 OT DIIS     0.80E-01   11.0     0.00000751     -6908.3536932545 -4.33E-05
    13 OT DIIS     0.80E-01   11.0     0.00000732     -6908.3537695138 -7.63E-05
    14 OT DIIS     0.80E-01   11.0     0.00000707     -6908.3538186145 -4.91E-05
    15 OT DIIS     0.80E-01   11.0     0.00000698     -6908.3538682191 -4.96E-05
    16 OT DIIS     0.80E-01   11.0     0.00000711     -6908.3539227594 -5.45E-05
    17 OT DIIS     0.80E-01   11.1     0.00000686     -6908.3539791002 -5.63E-05
    18 OT DIIS     0.80E-01   11.1     0.00000676     -6908.3540552010 -7.61E-05
    19 OT DIIS     0.80E-01   11.0     0.00000677     -6908.3541111808 -5.60E-05
    20 OT DIIS     0.80E-01   11.1     0.00000645     -6908.3541512355 -4.01E-05
    21 OT DIIS     0.80E-01   11.1     0.00000644     -6908.3542128596 -6.16E-05
    22 OT DIIS     0.80E-01   11.2     0.00000659     -6908.3543015921 -8.87E-05
    23 OT DIIS     0.80E-01   11.5     0.00000662     -6908.3543751634 -7.36E-05
    24 OT DIIS     0.80E-01   11.3     0.00000632     -6908.3544393132 -6.41E-05
    25 OT DIIS     0.80E-01   11.4     0.00000608     -6908.3544646670 -2.54E-05
    26 OT DIIS     0.80E-01   11.5     0.00000667     -6908.3545754423 -1.11E-04
    27 OT DIIS     0.80E-01   11.5     0.00000677     -6908.3546644132 -8.90E-05
    28 OT DIIS     0.80E-01   11.6     0.00000683     -6908.3547618432 -9.74E-05
    29 OT SD       0.80E-01   11.6     0.00000847     -6908.3547936482 -3.18E-05
    30 OT SD       0.80E-01   11.6     0.00001817     -6908.3547987249 -5.08E-06
    31 OT DIIS     0.80E-01   11.5     0.00008656     -6908.3545392470  2.59E-04
    32 OT SD       0.80E-01   11.6     0.00000591     -6908.3548380072 -2.99E-04
    33 OT DIIS     0.80E-01   11.5     0.00001019     -6908.3548489782 -1.10E-05
    34 OT DIIS     0.80E-01   11.5     0.00000595     -6908.3548825710 -3.36E-05
    35 OT DIIS     0.80E-01   11.5     0.00000605     -6908.3549145183 -3.19E-05
    36 OT DIIS     0.80E-01   11.4     0.00000553     -6908.3549667688 -5.23E-05
    37 OT DIIS     0.80E-01   11.9     0.00000567     -6908.3550185450 -5.18E-05
    38 OT DIIS     0.80E-01   11.6     0.00000537     -6908.3551020247 -8.35E-05
    39 OT SD       0.80E-01   11.6     0.00000487     -6908.3551302720 -2.82E-05
    40 OT DIIS     0.80E-01   11.4     0.00000591     -6908.3551401317 -9.86E-06
    41 OT DIIS     0.80E-01   11.5     0.00000521     -6908.3552421216 -1.02E-04
    42 OT DIIS     0.80E-01   11.6     0.00000527     -6908.3552963633 -5.42E-05
    43 OT DIIS     0.80E-01   11.6     0.00000491     -6908.3553512323 -5.49E-05
    44 OT DIIS     0.80E-01   11.6     0.00000518     -6908.3553910064 -3.98E-05
    45 OT SD       0.80E-01   11.5     0.00000493     -6908.3553943907 -3.38E-06
    46 OT DIIS     0.80E-01   11.4     0.00001123     -6908.3553981982 -3.81E-06
    47 OT DIIS     0.80E-01   11.5     0.00000464     -6908.3554534275 -5.52E-05
    48 OT SD       0.80E-01   11.6     0.00000474     -6908.3554984793 -4.51E-05
    49 OT DIIS     0.80E-01   11.5     0.00000878     -6908.3555043167 -5.84E-06
    50 OT SD       0.80E-01   11.5     0.00000496     -6908.3555577450 -5.34E-05
    51 OT DIIS     0.80E-01   11.5     0.00001455     -6908.3555577468 -1.75E-09
    52 OT DIIS     0.80E-01   11.5     0.00000468     -6908.3556533944 -9.56E-05
    53 OT DIIS     0.80E-01   11.7     0.00000585     -6908.3557341182 -8.07E-05
    54 OT SD       0.80E-01   11.5     0.00000700     -6908.3557771689 -4.31E-05
    55 OT SD       0.80E-01   11.7     0.00000833     -6908.3557830720 -5.90E-06
    56 OT SD       0.80E-01   11.5     0.00001853     -6908.3557759046  7.17E-06
    57 OT DIIS     0.80E-01   11.5     0.00007633     -6908.3555492308  2.27E-04
    58 OT DIIS     0.80E-01   11.7     0.00000389     -6908.3558006324 -2.51E-04
    59 OT DIIS     0.80E-01   11.6     0.00000423     -6908.3558611804 -6.05E-05
    60 OT DIIS     0.80E-01   11.6     0.00000436     -6908.3558862648 -2.51E-05
    61 OT SD       0.80E-01   11.5     0.00000560     -6908.3558999509 -1.37E-05
    62 OT DIIS     0.80E-01   11.4     0.00002302     -6908.3558851594  1.48E-05
    63 OT DIIS     0.80E-01   11.7     0.00000467     -6908.3559666697 -8.15E-05
    64 OT DIIS     0.80E-01   11.4     0.00000373     -6908.3559785305 -1.19E-05
    65 OT SD       0.80E-01   11.4     0.00000499     -6908.3560470346 -6.85E-05
    66 OT SD       0.80E-01   11.6     0.00000984     -6908.3560479974 -9.63E-07
    67 OT DIIS     0.80E-01   11.5     0.00004119     -6908.3559851244  6.29E-05
    68 OT DIIS     0.80E-01   11.7     0.00000341     -6908.3560811726 -9.60E-05
    69 OT DIIS     0.80E-01   11.4     0.00000305     -6908.3560902103 -9.04E-06
    70 OT DIIS     0.80E-01   11.6     0.00000321     -6908.3561179520 -2.77E-05
    71 OT DIIS     0.80E-01   11.5     0.00000344     -6908.3561431134 -2.52E-05
    72 OT SD       0.80E-01   11.5     0.00000337     -6908.3561681767 -2.51E-05
    73 OT DIIS     0.80E-01   11.5     0.00000811     -6908.3561690975 -9.21E-07
    74 OT DIIS     0.80E-01   11.5     0.00000355     -6908.3561970849 -2.80E-05
    75 OT DIIS     0.80E-01   11.5     0.00000341     -6908.3562365570 -3.95E-05
    76 OT DIIS     0.80E-01   11.4     0.00000366     -6908.3562573395 -2.08E-05
    77 OT SD       0.80E-01   11.5     0.00000356     -6908.3562576765 -3.37E-07
    78 OT SD       0.80E-01   11.5     0.00000484     -6908.3562601509 -2.47E-06
    79 OT DIIS     0.80E-01   11.7     0.00001570     -6908.3562533617  6.79E-06
    80 OT DIIS     0.80E-01   11.5     0.00000257     -6908.3562665071 -1.31E-05
    81 OT DIIS     0.80E-01   11.5     0.00000249     -6908.3562708124 -4.31E-06
    82 OT DIIS     0.80E-01   11.3     0.00000260     -6908.3562817443 -1.09E-05
    83 OT DIIS     0.80E-01   11.4     0.00000255     -6908.3562860183 -4.27E-06
    84 OT DIIS     0.80E-01   11.6     0.00000256     -6908.3563020965 -1.61E-05
    85 OT DIIS     0.80E-01   11.5     0.00000236     -6908.3563085119 -6.42E-06
    86 OT DIIS     0.80E-01   11.6     0.00000240     -6908.3563327935 -2.43E-05
    87 OT SD       0.80E-01   11.5     0.00000231     -6908.3563410894 -8.30E-06
    88 OT DIIS     0.80E-01   11.6     0.00000621     -6908.3563416557 -5.66E-07
    89 OT DIIS     0.80E-01   11.7     0.00000227     -6908.3563643655 -2.27E-05
    90 OT DIIS     0.80E-01   11.5     0.00000237     -6908.3563715805 -7.21E-06
    91 OT SD       0.80E-01   11.5     0.00000229     -6908.3563928275 -2.12E-05
    92 OT DIIS     0.80E-01   11.6     0.00000576     -6908.3563932076 -3.80E-07
    93 OT DIIS     0.80E-01   11.5     0.00000207     -6908.3563986380 -5.43E-06
    94 OT SD       0.80E-01   11.7     0.00000251     -6908.3564213417 -2.27E-05
    95 OT DIIS     0.80E-01   11.7     0.00000786     -6908.3564202735  1.07E-06
    96 OT DIIS     0.80E-01   11.4     0.00000189     -6908.3564375674 -1.73E-05
    97 OT DIIS     0.80E-01   11.5     0.00000211     -6908.3564394032 -1.84E-06
    98 OT SD       0.80E-01   11.5     0.00000192     -6908.3564540164 -1.46E-05
    99 OT DIIS     0.80E-01   11.5     0.00000412     -6908.3564546502 -6.34E-07
   100 OT DIIS     0.80E-01   11.5     0.00000196     -6908.3564585531 -3.90E-06

  Leaving inner SCF loop after reaching   100 steps.


  Electronic density on regular grids:      -2431.9999999973        0.0000000027
  Core density on regular grids:             2431.9999999988       -0.0000000012
  Total charge density on r-space grids:        0.0000000016
  Total charge density g-space grids:           0.0000000016

  Overlap energy of the core charge distribution:               0.02836073297811
  Self energy of the core charge distribution:             -16017.19408509233290
  Core Hamiltonian energy:                                   4280.17053722391847
  Hartree energy:                                            6151.48653537024074
  Exchange-correlation energy:                              -1321.25591728784229
  Dispersion energy:                                           -1.59188950002781

  Total energy:                                             -6908.35645855306484

  outer SCF iter =    2 RMS gradient =   0.20E-05 energy =      -6908.3564585531

  ----------------------------------- OT ---------------------------------------
  Minimizer      : DIIS                : direct inversion
                                         in the iterative subspace
                                         using   7 DIIS vectors
                                         safer DIIS on
  Preconditioner : FULL_SINGLE_INVERSE : inversion of 
                                         H + eS - 2*(Sc)(c^T*H*c+const)(Sc)^T
  Precond_solver : DEFAULT
  stepsize       :    0.08000000                  energy_gap     :    0.08000000
  eps_taylor     :   0.10000E-15                  max_taylor     :             4
  ----------------------------------- OT ---------------------------------------

  Step     Update method      Time    Convergence         Total energy    Change
  ------------------------------------------------------------------------------
     1 OT DIIS     0.80E-01   30.7     0.00000210     -6908.3564687915 -1.02E-05
     2 OT DIIS     0.80E-01   10.9     0.00000749     -6908.3564680043  7.87E-07
     3 OT DIIS     0.80E-01   10.9     0.00000158     -6908.3564702241 -2.22E-06
     4 OT DIIS     0.80E-01   11.0     0.00000159     -6908.3564708138 -5.90E-07
     5 OT DIIS     0.80E-01   11.0     0.00000158     -6908.3564716605 -8.47E-07
     6 OT DIIS     0.80E-01   10.9     0.00000155     -6908.3564747360 -3.08E-06
     7 OT DIIS     0.80E-01   11.1     0.00000154     -6908.3564772123 -2.48E-06
     8 OT DIIS     0.80E-01   11.1     0.00000147     -6908.3564793208 -2.11E-06
     9 OT DIIS     0.80E-01   11.1     0.00000145     -6908.3564817178 -2.40E-06
    10 OT DIIS     0.80E-01   11.1     0.00000144     -6908.3564835982 -1.88E-06
    11 OT DIIS     0.80E-01   11.1     0.00000144     -6908.3564864635 -2.87E-06
    12 OT DIIS     0.80E-01   11.1     0.00000144     -6908.3564903925 -3.93E-06
    13 OT DIIS     0.80E-01   11.1     0.00000141     -6908.3564941845 -3.79E-06
    14 OT DIIS     0.80E-01   11.1     0.00000139     -6908.3564983189 -4.13E-06
    15 OT DIIS     0.80E-01   11.1     0.00000135     -6908.3565020233 -3.70E-06
    16 OT DIIS     0.80E-01   11.0     0.00000136     -6908.3565058043 -3.78E-06
    17 OT DIIS     0.80E-01   11.1     0.00000137     -6908.3565091633 -3.36E-06
    18 OT DIIS     0.80E-01   11.0     0.00000132     -6908.3565139610 -4.80E-06
    19 OT DIIS     0.80E-01   11.1     0.00000132     -6908.3565182524 -4.29E-06
    20 OT DIIS     0.80E-01   11.2     0.00000131     -6908.3565224201 -4.17E-06
    21 OT DIIS     0.80E-01   10.9     0.00000129     -6908.3565260244 -3.60E-06
    22 OT DIIS     0.80E-01   11.0     0.00000130     -6908.3565306152 -4.59E-06
    23 OT DIIS     0.80E-01   11.0     0.00000128     -6908.3565361866 -5.57E-06
    24 OT DIIS     0.80E-01   11.0     0.00000128     -6908.3565421739 -5.99E-06
    25 OT DIIS     0.80E-01   11.1     0.00000125     -6908.3565467569 -4.58E-06
    26 OT DIIS     0.80E-01   11.1     0.00000122     -6908.3565517948 -5.04E-06
    27 OT DIIS     0.80E-01   11.2     0.00000125     -6908.3565585880 -6.79E-06
    28 OT DIIS     0.80E-01   11.0     0.00000127     -6908.3565671039 -8.52E-06
    29 OT DIIS     0.80E-01   11.0     0.00000124     -6908.3565728350 -5.73E-06
    30 OT SD       0.80E-01   11.1     0.00000118     -6908.3565749490 -2.11E-06
    31 OT DIIS     0.80E-01   11.2     0.00000119     -6908.3565755639 -6.15E-07
    32 OT DIIS     0.80E-01   11.1     0.00000133     -6908.3565891241 -1.36E-05
    33 OT DIIS     0.80E-01   11.1     0.00000134     -6908.3565960961 -6.97E-06
    34 OT DIIS     0.80E-01   11.1     0.00000126     -6908.3566015544 -5.46E-06
    35 OT DIIS     0.80E-01   11.1     0.00000144     -6908.3566117249 -1.02E-05
    36 OT DIIS     0.80E-01   11.1     0.00000129     -6908.3566135963 -1.87E-06
    37 OT DIIS     0.80E-01   11.1     0.00000117     -6908.3566161578 -2.56E-06
    38 OT DIIS     0.80E-01   11.0     0.00000100     -6908.3566198401 -3.68E-06

  *** SCF run converged in    38 steps ***


  Electronic density on regular grids:      -2432.0000000226       -0.0000000226
  Core density on regular grids:             2431.9999999988       -0.0000000012
  Total charge density on r-space grids:       -0.0000000238
  Total charge density g-space grids:          -0.0000000238

  Overlap energy of the core charge distribution:               0.02836073297811
  Self energy of the core charge distribution:             -16017.19408509233290
  Core Hamiltonian energy:                                   4280.17009904193765
  Hartree energy:                                            6151.48677673206294
  Exchange-correlation energy:                              -1321.25588175467396
  Dispersion energy:                                           -1.59188950002781

  Total energy:                                             -6908.35661984005583

  outer SCF iter =    3 RMS gradient =   0.10E-05 energy =      -6908.3566198401
  outer SCF loop converged in   3 iterations or  238 steps


 ENERGY| Total FORCE_EVAL ( QS ) energy [hartree]          -6908.356624818226919

 OPT| **************************************************************************
 OPT| Step number                                                              1
 OPT| Optimization method                                                  LBFGS
 OPT| Total energy [hartree]                                    -6908.3566248182
 OPT| Effective energy change [hartree]                           -14.2147220107
 OPT| Decrease in energy                                                     YES
 OPT| Used time [s]                                                     7378.474
 OPT|
 OPT| Maximum step size                                             0.4724315332
 OPT| Convergence limit for maximum step size                       0.0030000000
 OPT| Maximum step size is converged                                          NO
 OPT|
 OPT| RMS step size                                                 0.1127296204
 OPT| Convergence limit for RMS step size                           0.0015000000
 OPT| RMS step size is converged                                              NO
 OPT|
 OPT| Maximum gradient                                              1.5129127494
 OPT| Convergence limit for maximum gradient                        0.0010000000
 OPT| Maximum gradient is converged                                           NO
 OPT|
 OPT| RMS gradient                                                  0.2374346062
 OPT| Convergence limit for RMS gradient                            0.0005000000
 OPT| RMS gradient is converged                                               NO
 OPT| **************************************************************************
 OPT| Estimated peak process memory after this step [MiB]                  17323

 --------------------------
 OPTIMIZATION STEP:      2
 --------------------------

 Number of electrons:                                                       2432
 Number of occupied orbitals:                                               1216
 Number of molecular orbitals:                                              1216

 Number of orbital functions:                                               4983
 Number of independent orbital functions:                                   4983

 Extrapolation method: ASPC


 SCF WAVEFUNCTION OPTIMIZATION

  ----------------------------------- OT ---------------------------------------
  Minimizer      : DIIS                : direct inversion
                                         in the iterative subspace
                                         using   7 DIIS vectors
                                         safer DIIS on
  Preconditioner : FULL_SINGLE_INVERSE : inversion of 
                                         H + eS - 2*(Sc)(c^T*H*c+const)(Sc)^T
  Precond_solver : DEFAULT
  stepsize       :    0.08000000                  energy_gap     :    0.08000000
  eps_taylor     :   0.10000E-15                  max_taylor     :             4
  ----------------------------------- OT ---------------------------------------

  Step     Update method      Time    Convergence         Total energy    Change
[...]

 OPT| **************************************************************************
 OPT| Step number                                                             92
 OPT| Optimization method                                                  LBFGS
 OPT| Total energy [hartree]                                    -6920.3141622300
 OPT| Effective energy change [hartree]                            -0.0034429321
 OPT| Decrease in energy                                                     YES
 OPT| Used time [s]                                                     1557.374
 OPT|
 OPT| Maximum step size                                             0.0809592026
 OPT| Convergence limit for maximum step size                       0.0030000000
 OPT| Maximum step size is converged                                          NO
 OPT|
 OPT| RMS step size                                                 0.0146702205
 OPT| Convergence limit for RMS step size                           0.0015000000
 OPT| RMS step size is converged                                              NO
 OPT|
 OPT| Maximum gradient                                              0.2957723871
 OPT| Convergence limit for maximum gradient                        0.0010000000
 OPT| Maximum gradient is converged                                           NO
 OPT|
 OPT| RMS gradient                                                  0.0148468883
 OPT| Convergence limit for RMS gradient                            0.0005000000
 OPT| RMS gradient is converged                                               NO
 OPT| **************************************************************************
 OPT| Estimated peak process memory after this step [MiB]                  17939

 --------------------------
 OPTIMIZATION STEP:     93
 --------------------------

 Number of electrons:                                                       2432
 Number of occupied orbitals:                                               1216
 Number of molecular orbitals:                                              1216

 Number of orbital functions:                                               4983
 Number of independent orbital functions:                                   4983

 Extrapolation method: ASPC


 SCF WAVEFUNCTION OPTIMIZATION

  ----------------------------------- OT ---------------------------------------
  Minimizer      : DIIS                : direct inversion
                                         in the iterative subspace
                                         using   7 DIIS vectors
                                         safer DIIS on
  Preconditioner : FULL_SINGLE_INVERSE : inversion of 
                                         H + eS - 2*(Sc)(c^T*H*c+const)(Sc)^T
  Precond_solver : DEFAULT
  stepsize       :    0.08000000                  energy_gap     :    0.08000000
  eps_taylor     :   0.10000E-15                  max_taylor     :             4
  ----------------------------------- OT ---------------------------------------

  Step     Update method      Time    Convergence         Total energy    Change
  ------------------------------------------------------------------------------
     1 OT DIIS     0.80E-01   15.4     0.00078373     -6920.1608672474 -6.92E+03
     2 OT DIIS     0.80E-01   11.7     0.00086955     -6920.1332355540  2.76E-02
     3 OT DIIS     0.80E-01   11.7     0.00018733     -6920.2337805336 -1.01E-01
     4 OT DIIS     0.80E-01   11.7     0.00010860     -6920.2397078001 -5.93E-03
     5 OT DIIS     0.80E-01   11.7     0.00013365     -6920.2421342074 -2.43E-03
     6 OT DIIS     0.80E-01   11.8     0.00009188     -6920.2435708240 -1.44E-03
     7 OT DIIS     0.80E-01   11.8     0.00006162     -6920.2450764488 -1.51E-03
     8 OT DIIS     0.80E-01   11.9     0.00003230     -6920.2456770716 -6.01E-04
     9 OT DIIS     0.80E-01   11.8     0.00003181     -6920.2459393479 -2.62E-04
    10 OT DIIS     0.80E-01   11.7     0.00002390     -6920.2460431288 -1.04E-04
    11 OT DIIS     0.80E-01   11.9     0.00001540     -6920.2461386251 -9.55E-05
    12 OT DIIS     0.80E-01   12.0     0.00001453     -6920.2462650615 -1.26E-04
    13 OT DIIS     0.80E-01   11.8     0.00001611     -6920.2463274793 -6.24E-05
    14 OT DIIS     0.80E-01   11.8     0.00001204     -6920.2464053903 -7.79E-05
    15 OT DIIS     0.80E-01   11.7     0.00001171     -6920.2464627283 -5.73E-05
    16 OT DIIS     0.80E-01   11.7     0.00000877     -6920.2465171350 -5.44E-05
    17 OT DIIS     0.80E-01   11.9     0.00000858     -6920.2465871768 -7.00E-05
    18 OT DIIS     0.80E-01   12.0     0.00000982     -6920.2466280990 -4.09E-05
    19 OT DIIS     0.80E-01   11.8     0.00000791     -6920.2466618591 -3.38E-05
    20 OT DIIS     0.80E-01   11.7     0.00000675     -6920.2467163136 -5.45E-05
    21 OT DIIS     0.80E-01   11.8     0.00000720     -6920.2467431520 -2.68E-05
    22 OT DIIS     0.80E-01   11.8     0.00000630     -6920.2467725513 -2.94E-05
    23 OT DIIS     0.80E-01   11.7     0.00000637     -6920.2468029716 -3.04E-05
    24 OT DIIS     0.80E-01   11.7     0.00000561     -6920.2468284521 -2.55E-05
    25 OT DIIS     0.80E-01   11.8     0.00000512     -6920.2468661911 -3.77E-05
    26 OT DIIS     0.80E-01   11.8     0.00000544     -6920.2468952529 -2.91E-05
    27 OT DIIS     0.80E-01   11.9     0.00000498     -6920.2469096674 -1.44E-05
    28 OT DIIS     0.80E-01   11.9     0.00000449     -6920.2469396345 -3.00E-05
    29 OT DIIS     0.80E-01   11.9     0.00000480     -6920.2469586511 -1.90E-05
    30 OT DIIS     0.80E-01   11.9     0.00000446     -6920.2469781934 -1.95E-05
    31 OT DIIS     0.80E-01   11.8     0.00000438     -6920.2469985131 -2.03E-05
    32 OT DIIS     0.80E-01   11.9     0.00000407     -6920.2470131742 -1.47E-05
    33 OT DIIS     0.80E-01   11.8     0.00000374     -6920.2470341395 -2.10E-05
    34 OT DIIS     0.80E-01   11.9     0.00000378     -6920.2470536155 -1.95E-05
    35 OT DIIS     0.80E-01   11.8     0.00000386     -6920.2470643233 -1.07E-05
    36 OT DIIS     0.80E-01   11.8     0.00000343     -6920.2470851813 -2.09E-05
    37 OT DIIS     0.80E-01   11.8     0.00000356     -6920.2471002346 -1.51E-05
    38 OT DIIS     0.80E-01   11.9     0.00000337     -6920.2471124345 -1.22E-05
    39 OT DIIS     0.80E-01   11.9     0.00000331     -6920.2471257093 -1.33E-05
    40 OT DIIS     0.80E-01   11.8     0.00000319     -6920.2471349651 -9.26E-06
    41 OT DIIS     0.80E-01   11.7     0.00000302     -6920.2471496920 -1.47E-05
    42 OT DIIS     0.80E-01   11.9     0.00000301     -6920.2471635918 -1.39E-05
    43 OT DIIS     0.80E-01   11.8     0.00000308     -6920.2471718584 -8.27E-06
    44 OT DIIS     0.80E-01   11.8     0.00000281     -6920.2471844653 -1.26E-05
    45 OT DIIS     0.80E-01   11.8     0.00000282     -6920.2471954882 -1.10E-05
    46 OT DIIS     0.80E-01   11.9     0.00000280     -6920.2472045507 -9.06E-06
    47 OT DIIS     0.80E-01   11.9     0.00000275     -6920.2472159785 -1.14E-05
    48 OT DIIS     0.80E-01   11.8     0.00000271     -6920.2472240284 -8.05E-06
    49 OT DIIS     0.80E-01   12.0     0.00000255     -6920.2472367001 -1.27E-05
    50 OT DIIS     0.80E-01   11.9     0.00000252     -6920.2472481990 -1.15E-05
    51 OT DIIS     0.80E-01   11.9     0.00000257     -6920.2472556215 -7.42E-06
    52 OT DIIS     0.80E-01   11.9     0.00000242     -6920.2472664380 -1.08E-05
    53 OT DIIS     0.80E-01   12.0     0.00000242     -6920.2472778676 -1.14E-05
    54 OT DIIS     0.80E-01   12.0     0.00000244     -6920.2472872555 -9.39E-06
    55 OT DIIS     0.80E-01   11.8     0.00000233     -6920.2472975383 -1.03E-05
    56 OT DIIS     0.80E-01   11.7     0.00000230     -6920.2473041088 -6.57E-06
    57 OT DIIS     0.80E-01   11.9     0.00000216     -6920.2473136216 -9.51E-06
    58 OT DIIS     0.80E-01   11.8     0.00000216     -6920.2473243190 -1.07E-05
    59 OT DIIS     0.80E-01   11.8     0.00000228     -6920.2473317894 -7.47E-06
    60 OT DIIS     0.80E-01   12.3     0.00000209     -6920.2473415638 -9.77E-06
    61 OT DIIS     0.80E-01   12.6     0.00000203     -6920.2473496410 -8.08E-06
    62 OT DIIS     0.80E-01   12.0     0.00000199     -6920.2473550987 -5.46E-06
    63 OT DIIS     0.80E-01   11.9     0.00000196     -6920.2473614333 -6.33E-06
    64 OT DIIS     0.80E-01   11.8     0.00000205     -6920.2473678856 -6.45E-06
    65 OT DIIS     0.80E-01   11.8     0.00000190     -6920.2473764601 -8.57E-06
    66 OT DIIS     0.80E-01   11.7     0.00000186     -6920.2473853401 -8.88E-06
    67 OT DIIS     0.80E-01   12.0     0.00000181     -6920.2473890159 -3.68E-06
    68 OT DIIS     0.80E-01   11.9     0.00000171     -6920.2473920390 -3.02E-06
    69 OT DIIS     0.80E-01   11.9     0.00000174     -6920.2473988626 -6.82E-06
    70 OT DIIS     0.80E-01   11.7     0.00000181     -6920.2474044086 -5.55E-06
    71 OT DIIS     0.80E-01   11.7     0.00000180     -6920.2474107943 -6.39E-06
    72 OT DIIS     0.80E-01   12.0     0.00000181     -6920.2474169620 -6.17E-06
    73 OT DIIS     0.80E-01   11.8     0.00000158     -6920.2474208086 -3.85E-06
    74 OT DIIS     0.80E-01   11.8     0.00000149     -6920.2474233114 -2.50E-06
    75 OT DIIS     0.80E-01   11.8     0.00000156     -6920.2474270549 -3.74E-06
    76 OT DIIS     0.80E-01   11.9     0.00000147     -6920.2474302671 -3.21E-06
    77 OT DIIS     0.80E-01   12.0     0.00000156     -6920.2474354107 -5.14E-06
    78 OT DIIS     0.80E-01   11.8     0.00000148     -6920.2474410934 -5.68E-06
    79 OT DIIS     0.80E-01   11.7     0.00000138     -6920.2474456176 -4.52E-06
    80 OT DIIS     0.80E-01   11.9     0.00000130     -6920.2474471469 -1.53E-06
    81 OT DIIS     0.80E-01   11.7     0.00000131     -6920.2474495863 -2.44E-06
    82 OT DIIS     0.80E-01   12.0     0.00000123     -6920.2474518140 -2.23E-06
    83 OT DIIS     0.80E-01   11.7     0.00000146     -6920.2474542369 -2.42E-06
    84 OT DIIS     0.80E-01   11.8     0.00000121     -6920.2474567495 -2.51E-06
    85 OT DIIS     0.80E-01   11.6     0.00000118     -6920.2474617950 -5.05E-06
    86 OT DIIS     0.80E-01   11.8     0.00000111     -6920.2474639554 -2.16E-06
    87 OT DIIS     0.80E-01   11.8     0.00000109     -6920.2474652465 -1.29E-06
    88 OT DIIS     0.80E-01   11.7     0.00000106     -6920.2474665170 -1.27E-06
    89 OT DIIS     0.80E-01   11.9     0.00000112     -6920.2474678612 -1.34E-06
    90 OT DIIS     0.80E-01   11.8     0.00000106     -6920.2474701435 -2.28E-06
    91 OT DIIS     0.80E-01   11.9     0.00000118     -6920.2474736158 -3.47E-06
    92 OT DIIS     0.80E-01   11.9     0.00000105     -6920.2474754709 -1.86E-06
    93 OT DIIS     0.80E-01   11.8     0.00000094     -6920.2474776441 -2.17E-06

  *** SCF run converged in    93 steps ***


  Electronic density on regular grids:      -2431.9999998840        0.0000001160
  Core density on regular grids:             2431.9999999988       -0.0000000012
  Total charge density on r-space grids:        0.0000001148
  Total charge density g-space grids:           0.0000001148

  Overlap energy of the core charge distribution:               0.00001058535563
  Self energy of the core charge distribution:             -16017.19408509233290
  Core Hamiltonian energy:                                   4261.37971051448039
  Hartree energy:                                            6155.22843392007871
  Exchange-correlation energy:                              -1318.02341925218707
  Dispersion energy:                                           -1.63812831954089

  Total energy:                                             -6920.24747764414496

  outer SCF iter =    1 RMS gradient =   0.94E-06 energy =      -6920.2474776441
  outer SCF loop converged in   1 iterations or   93 steps


 ENERGY| Total FORCE_EVAL ( QS ) energy [hartree]          -6920.247478426232192

 Number of electrons:                                                       2432
 Number of occupied orbitals:                                               1216
 Number of molecular orbitals:                                              1216

 Number of orbital functions:                                               4983
 Number of independent orbital functions:                                   4983

 Extrapolation method: ASPC


 SCF WAVEFUNCTION OPTIMIZATION

  ----------------------------------- OT ---------------------------------------
  Minimizer      : DIIS                : direct inversion
                                         in the iterative subspace
                                         using   7 DIIS vectors
                                         safer DIIS on
  Preconditioner : FULL_SINGLE_INVERSE : inversion of 
                                         H + eS - 2*(Sc)(c^T*H*c+const)(Sc)^T
  Precond_solver : DEFAULT
  stepsize       :    0.08000000                  energy_gap     :    0.08000000
  eps_taylor     :   0.10000E-15                  max_taylor     :             4
  ----------------------------------- OT ---------------------------------------

  Step     Update method      Time    Convergence         Total energy    Change
  ------------------------------------------------------------------------------
     1 OT DIIS     0.80E-01   15.7     0.00142709     -6919.6599920854 -6.92E+03
     2 OT DIIS     0.80E-01   11.8     0.00117953     -6919.9041457054 -2.44E-01
     3 OT DIIS     0.80E-01   11.8     0.00045390     -6920.1284184777 -2.24E-01
     4 OT DIIS     0.80E-01   11.8     0.00038645     -6920.1944118153 -6.60E-02
     5 OT DIIS     0.80E-01   11.8     0.00037188     -6920.2494882739 -5.51E-02
     6 OT DIIS     0.80E-01   11.7     0.00017846     -6920.2775330836 -2.80E-02
     7 OT DIIS     0.80E-01   11.9     0.00012829     -6920.2955171826 -1.80E-02
     8 OT DIIS     0.80E-01   11.8     0.00013211     -6920.2989143437 -3.40E-03
     9 OT DIIS     0.80E-01   11.8     0.00006226     -6920.3033303561 -4.42E-03
    10 OT DIIS     0.80E-01   11.8     0.00005372     -6920.3061731021 -2.84E-03
    11 OT DIIS     0.80E-01   11.8     0.00005746     -6920.3071923602 -1.02E-03
    12 OT DIIS     0.80E-01   11.8     0.00003843     -6920.3085151352 -1.32E-03
    13 OT DIIS     0.80E-01   11.9     0.00003579     -6920.3092970020 -7.82E-04
    14 OT DIIS     0.80E-01   11.7     0.00003456     -6920.3098408432 -5.44E-04
    15 OT DIIS     0.80E-01   11.7     0.00002623     -6920.3103924472 -5.52E-04
    16 OT DIIS     0.80E-01   11.7     0.00002954     -6920.3108162396 -4.24E-04
    17 OT DIIS     0.80E-01   11.9     0.00002168     -6920.3111232563 -3.07E-04
    18 OT DIIS     0.80E-01   11.8     0.00001936     -6920.3115225680 -3.99E-04
    19 OT DIIS     0.80E-01   11.9     0.00001978     -6920.3117952809 -2.73E-04
    20 OT DIIS     0.80E-01   11.5     0.00001759     -6920.3120540835 -2.59E-04
    21 OT DIIS     0.80E-01   11.7     0.00001614     -6920.3122941580 -2.40E-04
    22 OT DIIS     0.80E-01   11.8     0.00001610     -6920.3125251792 -2.31E-04
    23 OT DIIS     0.80E-01   11.7     0.00001383     -6920.3126930861 -1.68E-04
    24 OT DIIS     0.80E-01   11.7     0.00001461     -6920.3128993602 -2.06E-04
    25 OT DIIS     0.80E-01   11.9     0.00001233     -6920.3130014376 -1.02E-04
    26 OT DIIS     0.80E-01   11.8     0.00001136     -6920.3131651820 -1.64E-04
    27 OT DIIS     0.80E-01   12.0     0.00001124     -6920.3132805793 -1.15E-04
    28 OT DIIS     0.80E-01   11.7     0.00001052     -6920.3133884179 -1.08E-04
    29 OT DIIS     0.80E-01   11.7     0.00001003     -6920.3134757372 -8.73E-05
    30 OT DIIS     0.80E-01   11.9     0.00000977     -6920.3135883930 -1.13E-04
    31 OT DIIS     0.80E-01   11.8     0.00000915     -6920.3136523950 -6.40E-05
    32 OT DIIS     0.80E-01   11.9     0.00000898     -6920.3137664285 -1.14E-04
    33 OT DIIS     0.80E-01   12.0     0.00000866     -6920.3138221414 -5.57E-05
    34 OT DIIS     0.80E-01   11.8     0.00000789     -6920.3139134366 -9.13E-05
    35 OT DIIS     0.80E-01   11.9     0.00000784     -6920.3139883581 -7.49E-05
    36 OT DIIS     0.80E-01   12.0     0.00000744     -6920.3140557841 -6.74E-05
    37 OT DIIS     0.80E-01   12.1     0.00000726     -6920.3141104921 -5.47E-05
    38 OT DIIS     0.80E-01   11.8     0.00000691     -6920.3141890242 -7.85E-05
    39 OT DIIS     0.80E-01   11.9     0.00000682     -6920.3142333426 -4.43E-05
    40 OT DIIS     0.80E-01   11.8     0.00000641     -6920.3143134636 -8.01E-05
    41 OT DIIS     0.80E-01   11.8     0.00000655     -6920.3143553462 -4.19E-05
    42 OT DIIS     0.80E-01   11.9     0.00000586     -6920.3144117806 -5.64E-05
    43 OT DIIS     0.80E-01   11.9     0.00000583     -6920.3144647166 -5.29E-05
    44 OT DIIS     0.80E-01   11.8     0.00000556     -6920.3145051418 -4.04E-05
    45 OT DIIS     0.80E-01   11.7     0.00000551     -6920.3145409564 -3.58E-05
    46 OT DIIS     0.80E-01   11.8     0.00000519     -6920.3145887991 -4.78E-05
    47 OT DIIS     0.80E-01   11.8     0.00000518     -6920.3146160531 -2.73E-05
    48 OT DIIS     0.80E-01   11.9     0.00000483     -6920.3146596984 -4.36E-05
    49 OT DIIS     0.80E-01   11.8     0.00000500     -6920.3146859846 -2.63E-05
    50 OT DIIS     0.80E-01   11.8     0.00000453     -6920.3147138859 -2.79E-05
    51 OT DIIS     0.80E-01   11.8     0.00000452     -6920.3147454621 -3.16E-05
    52 OT DIIS     0.80E-01   11.8     0.00000436     -6920.3147684647 -2.30E-05
    53 OT DIIS     0.80E-01   11.8     0.00000433     -6920.3147896298 -2.12E-05
    54 OT DIIS     0.80E-01   11.8     0.00000411     -6920.3148168791 -2.72E-05
    55 OT DIIS     0.80E-01   11.7     0.00000411     -6920.3148329911 -1.61E-05
    56 OT DIIS     0.80E-01   12.1     0.00000388     -6920.3148582156 -2.52E-05
    57 OT DIIS     0.80E-01   11.8     0.00000400     -6920.3148760311 -1.78E-05
    58 OT DIIS     0.80E-01   11.9     0.00000373     -6920.3148927141 -1.67E-05
    59 OT DIIS     0.80E-01   11.7     0.00000371     -6920.3149140317 -2.13E-05
    60 OT DIIS     0.80E-01   11.7     0.00000360     -6920.3149296530 -1.56E-05
    61 OT DIIS     0.80E-01   12.3     0.00000358     -6920.3149436791 -1.40E-05
    62 OT DIIS     0.80E-01   12.1     0.00000344     -6920.3149618831 -1.82E-05
    63 OT DIIS     0.80E-01   11.8     0.00000344     -6920.3149731777 -1.13E-05
    64 OT DIIS     0.80E-01   11.7     0.00000331     -6920.3149915100 -1.83E-05
    65 OT DIIS     0.80E-01   11.8     0.00000338     -6920.3150057317 -1.42E-05
    66 OT DIIS     0.80E-01   11.9     0.00000322     -6920.3150182413 -1.25E-05
    67 OT DIIS     0.80E-01   11.8     0.00000318     -6920.3150347468 -1.65E-05
    68 OT DIIS     0.80E-01   11.8     0.00000312     -6920.3150479883 -1.32E-05
    69 OT DIIS     0.80E-01   11.9     0.00000310     -6920.3150595702 -1.16E-05
    70 OT DIIS     0.80E-01   11.9     0.00000303     -6920.3150753963 -1.58E-05
    71 OT DIIS     0.80E-01   12.0     0.00000301     -6920.3150858281 -1.04E-05
    72 OT DIIS     0.80E-01   11.9     0.00000293     -6920.3151025440 -1.67E-05
    73 OT DIIS     0.80E-01   11.9     0.00000295     -6920.3151158245 -1.33E-05
    74 OT DIIS     0.80E-01   11.8     0.00000287     -6920.3151270188 -1.12E-05
    75 OT DIIS     0.80E-01   11.8     0.00000282     -6920.3151427524 -1.57E-05
    76 OT DIIS     0.80E-01   11.6     0.00000280     -6920.3151560381 -1.33E-05
    77 OT DIIS     0.80E-01   11.9     0.00000277     -6920.3151678532 -1.18E-05
    78 OT DIIS     0.80E-01   11.9     0.00000272     -6920.3151830966 -1.52E-05
    79 OT DIIS     0.80E-01   12.0     0.00000268     -6920.3151935804 -1.05E-05
    80 OT DIIS     0.80E-01   11.9     0.00000263     -6920.3152079433 -1.44E-05
    81 OT DIIS     0.80E-01   12.3     0.00000262     -6920.3152209419 -1.30E-05
    82 OT DIIS     0.80E-01   11.9     0.00000259     -6920.3152308245 -9.88E-06
    83 OT DIIS     0.80E-01   12.1     0.00000253     -6920.3152467637 -1.59E-05
    84 OT DIIS     0.80E-01   11.9     0.00000253     -6920.3152590416 -1.23E-05
