#     Step Nr.          Time[fs]        Kin.[a.u.]          Temp[K]            Pot.[a.u.]        Cons Qty[a.u.]        UsedTime[s]
         0            0.000000         1.784079260       973.000000000     -6895.053126671     -6893.269047412         0.000000000
         1            0.250000         1.812698547       988.608368683     -6895.079943689     -6893.269799843      1884.622896210
         2            0.500000         1.881931369      1026.366520646     -6895.130858366     -6893.270787030       104.000962153
         3            0.750000         1.956274288      1066.911614043     -6895.199506451     -6893.271934238        93.890911917
         4            1.000000         2.047336425      1116.575023868     -6895.278497585     -6893.273052233        84.784065211
         5            1.250000         2.119773694      1156.080815093     -6895.360540132     -6893.273948649        85.383879642
         6            1.500000         2.204043180      1202.039653151     -6895.439981773     -6893.274610378       115.215636712
         7            1.750000         2.238047849      1220.585097548     -6895.512822768     -6893.275012983        95.855223717
         8            2.000000         2.256768005      1230.794684480     -6895.576938620     -6893.275243657       134.625890003
         9            2.250000         2.262401190      1233.866907181     -6895.631698214     -6893.275364654       115.290989401
        10            2.500000         2.309207657      1259.394188072     -6895.677536746     -6893.275329085       105.362936978
        11            2.750000         2.351173102      1282.281275454     -6895.715373366     -6893.275167560       115.335315198
        12            3.000000         2.376523472      1296.106843834     -6895.746140333     -6893.274959207       115.031043302
        13            3.250000         2.366686805      1290.742128619     -6895.770827424     -6893.274705784       115.194822148
        14            3.500000         2.354592632      1284.146216314     -6895.790869829     -6893.274817226       164.026135974
        15            3.750000         2.327542157      1269.393445600     -6895.807353473     -6893.275105120       135.513189332
        16            4.000000         2.316322491      1263.274471714     -6895.821093614     -6893.275309372       173.613471101
        17            4.250000         2.317681056      1264.015404929     -6895.832622370     -6893.275310468       163.774428875
        18            4.500000         2.274233549      1240.320031505     -6895.842347364     -6893.275053577       174.487565608
        19            4.750000         2.297958875      1253.259334694     -6895.851018895     -6893.274864946       174.113345293
        20            5.000000         2.279952379      1243.438963297     -6895.858527793     -6893.274689493       174.665536030
        21            5.250000         2.269562904      1237.772758042     -6895.865411309     -6893.274407203       252.878918599
        22            5.500000         2.264447706      1234.983034845     -6895.873265475     -6893.274434853       262.878904474
        23            5.750000         2.266681132      1236.201099033     -6895.882678725     -6893.274865639       262.483221852
        24            6.000000         2.268814803      1237.364759179     -6895.893206075     -6893.275182057       174.679178350
        25            6.250000         2.270274627      1238.160916937     -6895.904738273     -6893.275145737       282.857072898
        26            6.500000         2.264828124      1235.190506988     -6895.917684436     -6893.274968191       203.448138163
        27            6.750000         2.248590229      1226.334693797     -6895.931563981     -6893.274493746       272.653635446
        28            7.000000         2.280250834      1243.601734365     -6895.946023742     -6893.274127081       272.948080456
        29            7.250000         2.272084169      1239.147803721     -6895.960157406     -6893.274331680       243.446462721
        30            7.500000         2.285058443      1246.223705014     -6895.971942122     -6893.274628489       252.822235321
        31            7.750000         2.216676886      1208.929815535     -6895.979375321     -6893.274943479       284.061211898
        32            8.000000         2.204520472      1202.299958379     -6895.981380196     -6893.275116791       273.574416610
        33            8.250000         2.171395527      1184.234297129     -6895.978317622     -6893.274856525       264.092827492
        34            8.500000         2.139748896      1166.974877961     -6895.973293229     -6893.274131559       283.076755535
        35            8.750000         2.126613030      1159.810847643     -6895.972291028     -6893.273210318       351.541436131
        36            9.000000         2.156679975      1176.208738687     -6895.982712650     -6893.273402972       489.926189441
        37            9.250000         2.128055015      1160.597276743     -6896.006297501     -6893.274025713       264.005762751
        38            9.500000         2.132110143      1162.808859835     -6896.038127086     -6893.274190199       342.926537837
        39            9.750000         2.160889008      1178.504258245     -6896.070992880     -6893.274603383       492.811498220
        40           10.000000         2.176972216      1187.275708133     -6896.097474695     -6893.274614715       274.739671411
        41           10.250000         2.159939697      1177.986523957     -6896.114178104     -6893.273971564       481.877593324
        42           10.500000         2.196933554      1198.162209664     -6896.123590458     -6893.273160168       314.211243230
        43           10.750000         2.221108998      1211.346998027     -6896.130869103     -6893.272511119       304.452654040
        44           11.000000         2.180447362      1189.170980742     -6896.141258377     -6893.272436888       343.394921719
        45           11.250000         2.197505265      1198.474009083     -6896.156847193     -6893.272493682       371.914550343
        46           11.500000         2.187662789      1193.106126091     -6896.176644807     -6893.272088831       774.671060785
        47           11.750000         2.179747156      1188.789102952     -6896.198874619     -6893.272160632       853.184538133
        48           12.000000         2.154749492      1175.155893369     -6896.221338425     -6893.273072376       384.124725781
        49           12.250000         2.176758392      1187.159093062     -6896.238908833     -6893.272986929       393.353644450
        50           12.500000         2.154874142      1175.223874981     -6896.249201259     -6893.271937431       870.342210035
        51           12.750000         2.162551280      1179.410827421     -6896.252560531     -6893.271998409       704.764324270
        52           13.000000         2.149537731      1172.313506546     -6896.247110139     -6893.272690888       391.874141947
        53           13.250000         2.143915750      1169.247393986     -6896.231356401     -6893.273314018       464.730036000
        54           13.500000         2.101800489      1146.278600150     -6896.206286923     -6893.273244236       417.742808993
        55           13.750000         2.063814273      1125.561701647     -6896.177833132     -6893.271737116       577.427280854
        56           14.000000         2.050534413      1118.319140307     -6896.159189285     -6893.271467050       348.827953993
        57           14.250000         2.017379962      1100.237387087     -6896.157799093     -6893.271338797       567.125287726
        58           14.500000         2.068031118      1127.861482361     -6896.174602832     -6893.271839079       347.280298399
        59           14.750000         2.078777952      1133.722583343     -6896.201429801     -6893.272128911       413.211876341
        60           15.000000         2.093000905      1141.479488679     -6896.228000297     -6893.271392674       479.364820826
        61           15.250000         2.137677558      1165.845213040     -6896.251778003     -6893.272450094       499.710230448
        62           15.500000         2.121289484      1156.907495685     -6896.267426946     -6893.271569091       508.814632179
        63           15.750000         2.118155078      1155.198055037     -6896.275979907     -6893.268661814       572.120775833
        64           16.000000         2.097372550      1143.863693229     -6896.285487147     -6893.269893879       601.414628871
        65           16.250000         2.122313345      1157.465888061     -6896.291154141     -6893.269085187       485.579212133
        66           16.500000         2.137173685      1165.570410664     -6896.298116953     -6893.270802582       541.074587408
        67           16.750000         2.148463188      1171.727473017     -6896.300627372     -6893.269303250       541.466264623
        68           17.000000         2.128842925      1161.026986139     -6896.303911067     -6893.269797474       615.876798354
        69           17.250000         2.089704526      1139.681711473     -6896.307644670     -6893.271970672       593.484466672
        70           17.500000         2.054213602      1120.325694332     -6896.305761718     -6893.269542826       583.215087978
        71           17.750000         2.089132095      1139.369519561     -6896.304691701     -6893.268384018       560.468869671
        72           18.000000         2.023011711      1103.308826712     -6896.306815443     -6893.270154986       572.205912141
        73           18.250000         1.990080857      1085.349018600     -6896.308699966     -6893.270825930       574.408908105
        74           18.500000         1.936560856      1056.160315208     -6896.311191426     -6893.271146193       614.639033458
        75           18.750000         1.951368021      1064.235837016     -6896.313265480     -6893.270598435       492.595312479
        76           19.000000         1.954938264      1066.182973936     -6896.312409417     -6893.267695684       562.861183570
        77           19.250000         1.944882438      1060.698733978     -6896.316639014     -6893.271453438       551.499143992
        78           19.500000         1.921578867      1047.989447362     -6896.315302628     -6893.271633021       564.996452458
        79           19.750000         1.899036641      1035.695382935     -6896.311464971     -6893.270671617       602.951249845
        80           20.000000         1.906237754      1039.622721081     -6896.307057876     -6893.268499308       605.241683898
        81           20.250000         1.878411976      1024.447116242     -6896.308232260     -6893.268571649       574.359877855
        82           20.500000         1.857778419      1013.194000425     -6896.316899288     -6893.270652865       555.199233753
        83           20.750000         1.848777239      1008.284942614     -6896.328875166     -6893.270000782       571.217354833
        84           21.000000         1.869991272      1019.854637949     -6896.347800807     -6893.271626512       498.350206610
        85           21.250000         1.864914928      1017.086105176     -6896.365632007     -6893.269877901       618.059898738
        86           21.500000         1.878902399      1024.714582679     -6896.387836774     -6893.272479964       566.762108378
        87           21.750000         1.890243004      1030.899514773     -6896.406412047     -6893.272628279       558.471397730
        88           22.000000         1.880140767      1025.389963418     -6896.423732621     -6893.273366911       498.781935545
        89           22.250000         1.876681759      1023.503491404     -6896.438010905     -6893.272390702       545.699168850
        90           22.500000         1.904672133      1038.768863725     -6896.451935280     -6893.272237898       531.245713271
        91           22.750000         1.935001140      1055.309678259     -6896.462801726     -6893.269891186       619.188077110
        92           23.000000         1.943278634      1059.824052597     -6896.475598850     -6893.270206993       514.111387148
        93           23.250000         1.970402590      1074.616898114     -6896.489140144     -6893.272498651       614.129608900
        94           23.500000         1.968062461      1073.340640051     -6896.499451088     -6893.272762365       607.826724414
        95           23.750000         1.942124827      1059.194790291     -6896.507519895     -6893.271912930       587.915172624
        96           24.000000         1.934179064      1054.861334710     -6896.518492596     -6893.274736246      1491.773425592
        97           24.250000         1.913608872      1043.642776792     -6896.525079188     -6893.273111446       552.126096738
        98           24.500000         1.901518994      1037.049207048     -6896.534711718     -6893.273547683      1394.441397042
        99           24.750000         1.912183548      1042.865434743     -6896.545064844     -6893.272527315       574.636295637
       100           25.000000         1.918499944      1046.310266790     -6896.558915526     -6893.271626138       568.352779513
       101           25.250000         1.963790044      1071.010551932     -6896.578986691     -6893.272800398       579.946966428
       102           25.500000         1.993755796      1087.353254718     -6896.602071139     -6893.272410999       548.921803828
       103           25.750000         2.016870166      1099.959354803     -6896.628591664     -6893.271147637       508.350507337
       104           26.000000         2.021431808      1102.447180094     -6896.661399263     -6893.272501453       487.772296916
       105           26.250000         2.030588194      1107.440884333     -6896.696953025     -6893.274358734       558.360042278
       106           26.500000         2.047049662      1116.418629289     -6896.729783966     -6893.272550750       490.633208945
       107           26.750000         2.040919078      1113.075135103     -6896.761774609     -6893.270842770       592.158585267
       108           27.000000         2.067196544      1127.406322593     -6896.794420159     -6893.272483699       539.793724823
       109           27.250000         2.052967407      1119.646045337     -6896.820381134     -6893.272261922       663.524938456
       110           27.500000         2.020079585      1101.709705628     -6896.842646748     -6893.275018502       499.950498967
       111           27.750000         2.009643747      1096.018215448     -6896.853296726     -6893.273453343       625.601357207
       112           28.000000         2.012223045      1097.424910877     -6896.860683450     -6893.274065182       494.612651646
       113           28.250000         1.986069015      1083.161043056     -6896.865394085     -6893.272335185       572.334297224
       114           28.500000         1.989167936      1084.851130453     -6896.879409109     -6893.273199252       509.744011695
       115           28.750000         1.953141476      1065.203043151     -6896.905511495     -6893.274522177       557.866432180
       116           29.000000         1.970770896      1074.817764964     -6896.941416871     -6893.276215354      1165.693647895
       117           29.250000         1.979472267      1079.563313108     -6896.976069808     -6893.273015981       572.651940335
       118           29.500000         1.984158625      1082.119155806     -6897.013161336     -6893.274411108       468.481264628
       119           29.750000         2.015893109      1099.426488449     -6897.041487048     -6893.274857300       582.917820617
       120           30.000000         2.014098995      1098.448015457     -6897.058762962     -6893.274976617       419.738120101
       121           30.250000         2.021438905      1102.451051181     -6897.065821268     -6893.274620009       583.121672199
       122           30.500000         2.046012697      1115.853089793     -6897.068264491     -6893.275281626       460.526050338
       123           30.750000         2.067396401      1127.515320378     -6897.071510100     -6893.275181275       500.523322522
       124           31.000000         2.053372481      1119.866964337     -6897.083772879     -6893.274874163       388.929928038
       125           31.250000         2.108436987      1149.898008817     -6897.107508735     -6893.273441242       532.442582484
       126           31.500000         2.117126854      1154.637283210     -6897.142334215     -6893.274543440       428.672363135
       127           31.750000         2.204237864      1202.145829764     -6897.179500091     -6893.276696199       561.282481832
       128           32.000000         2.207622313      1203.991638075     -6897.208912395     -6893.277283007       390.249690452
       129           32.250000         2.183238359      1190.693133034     -6897.227460554     -6893.276132835       402.937346273
       130           32.500000         2.122745863      1157.701774799     -6897.237558412     -6893.275054326       424.019016598
       131           32.750000         2.139086252      1166.613485280     -6897.243351227     -6893.276624742       458.777804016
       132           33.000000         2.162973623      1179.641164724     -6897.241973664     -6893.276828473       373.368713993
       133           33.250000         2.155367737      1175.493071165     -6897.233446809     -6893.275117781       452.857392367
       134           33.500000         2.152692751      1174.034189250     -6897.221368342     -6893.274328476       407.876925101
       135           33.750000         2.141986767      1168.195366694     -6897.207753661     -6893.274595245       511.496563058
       136           34.000000         2.092922653      1141.436811479     -6897.194574333     -6893.275263219       415.381923067
       137           34.250000         2.037189779      1111.041252496     -6897.182133990     -6893.273548341       574.704814763
       138           34.500000         2.026186713      1105.040407287     -6897.176912700     -6893.273641348       378.565447239
       139           34.750000         2.003045153      1092.419478348     -6897.176301024     -6893.272260931       466.130394237
       140           35.000000         1.991161679      1085.938476699     -6897.183601355     -6893.273479181       448.889786147
       141           35.250000         1.978482160      1079.023329117     -6897.193478214     -6893.273519714       561.000504809
       142           35.500000         1.947187139      1061.955670413     -6897.205967683     -6893.274004727       389.184932955
       143           35.750000         1.952265427      1064.725263785     -6897.217565051     -6893.272673026       552.698403894
       144           36.000000         1.934087304      1054.811291052     -6897.231213645     -6893.273202982       394.436752442
       145           36.250000         1.939227248      1057.614510429     -6897.246618730     -6893.275446438       467.992138656
       146           36.500000         1.942559276      1059.431729625     -6897.260814224     -6893.275553927       365.665920386
       147           36.750000         1.968102785      1073.362632343     -6897.273537405     -6893.274642369       668.584683594
       148           37.000000         1.985431485      1082.813347357     -6897.285184681     -6893.274513532       484.453656672
       149           37.250000         1.989051469      1084.787612077     -6897.297919818     -6893.275617437       700.967139018
       150           37.500000         1.987609348      1084.001108766     -6897.309836040     -6893.275587824       466.942472260
       151           37.750000         1.987464862      1083.922309006     -6897.322068031     -6893.275400267       403.659614500
       152           38.000000         1.947827978      1062.305170680     -6897.334551605     -6893.274493254       509.175620664
       153           38.250000         1.914116150      1043.919435701     -6897.349880309     -6893.274486136       444.161018397
       154           38.500000         1.963682294      1070.951787780     -6897.368463325     -6893.274929855       307.669659573
       155           38.750000         1.988359028      1084.409969023     -6897.389623163     -6893.275319240       724.723548899
       156           39.000000         2.030843605      1107.580180366     -6897.412336734     -6893.275517357       562.388449650
       157           39.250000         1.990679735      1085.675634377     -6897.435375899     -6893.275326615       373.484566541
       158           39.500000         1.983321584      1081.662650921     -6897.458246094     -6893.275055308       364.638463469
       159           39.750000         2.027787117      1105.913234949     -6897.479313927     -6893.274532987       464.396190541
       160           40.000000         2.012487624      1097.569207063     -6897.497054242     -6893.274016426       479.616313301
       161           40.250000         2.017185247      1100.131193759     -6897.509870455     -6893.273490467       443.047592703
       162           40.500000         2.002552476      1092.150782680     -6897.518659687     -6893.273462329       567.793582799
       163           40.750000         2.014258404      1098.534953986     -6897.526220562     -6893.273646386       525.071506731
       164           41.000000         1.994109155      1087.545969160     -6897.538539201     -6893.275160200       658.886220845
       165           41.250000         2.028482481      1106.292471651     -6897.557239410     -6893.275667045       384.632876014
       166           41.500000         2.038724408      1111.878207625     -6897.580859941     -6893.274589748       494.873337173
       167           41.750000         2.093389293      1141.691307193     -6897.605955996     -6893.274792578       868.354740722
       168           42.000000         2.128986432      1161.105252066     -6897.623971955     -6893.275814786       415.961412494
       169           42.250000         2.144076005      1169.334793931     -6897.627504198     -6893.275757752       298.725025866
       170           42.500000         2.110093299      1150.801327278     -6897.617180019     -6893.275505513      1025.927902433
       171           42.750000         2.084921364      1137.073073412     -6897.598760890     -6893.274629321       542.971565237
       172           43.000000         2.060515899      1123.762836809     -6897.583582961     -6893.273934703       400.751952284
       173           43.250000         2.014952837      1098.913683146     -6897.580825494     -6893.273830187       427.875863131
       174           43.500000         1.979764656      1079.722775985     -6897.590814927     -6893.272793440       358.271547950
