 DBCSR| CPU Multiplication driver                                           XSMM (U)
 DBCSR| Multrec recursion limit                                              512 (U)
 DBCSR| Multiplication stack size                                          50000 (U)
 DBCSR| Maximum elements for images                                    UNLIMITED (U)
 DBCSR| Multiplicative factor virtual images                                   1 (U)
 DBCSR| Use multiplication densification                                       F (D)
 DBCSR| Multiplication size stacks                                             3 (U)
 DBCSR| Use memory pool for CPU allocation                                     T (U)
 DBCSR| Number of 3D layers                                               SINGLE (U)
 DBCSR| Use MPI memory allocation                                              F (U)
 DBCSR| Use RMA algorithm                                                      F (U)
 DBCSR| Use Communication thread                                               T (U)
 DBCSR| Communication thread load                                             30 (D)
 DBCSR| MPI: My process id                                                     0
 DBCSR| MPI: Number of processes                                               1
 DBCSR| OMP: Current number of threads                                        16
 DBCSR| OMP: Max number of threads                                            16
 DBCSR| ACC: Number of devices/node                                            1
 DBCSR| ACC: Number of stack-buffers per thread                              128 (U)
 DBCSR| ACC: Avoid driver after busy                                           F (U)
 DBCSR| ACC: Process inhomogeneous stacks                                      T (U)
 DBCSR| ACC: Min. flop for processing                                        500 (U)
 DBCSR| ACC: Use G2G algorithm                                                 F (D)
 DBCSR| ACC: Min. flop for sorting                                           100 (U)
 DBCSR| ACC: Number of binning bins                                        16384 (U)
 DBCSR| ACC: Size of binning bins                                             16 (U)
 DBCSR| ACC: GPU backend is enabled                                            T (D)
 DBCSR| Split modifier for TAS multiplication algorithm                  1.0E+00 (U)


  **** **** ******  **  PROGRAM STARTED AT               2025-11-28 16:58:28.883
 ***** ** ***  *** **   PROGRAM STARTED ON                          fd57e7e32bf2
 **    ****   ******    PROGRAM STARTED BY                             <unknown>
 ***** **    ** ** **   PROGRAM PROCESS ID                                   638
  **** **  *******  **  PROGRAM STARTED IN                             /mnt/cp2k

 CP2K| version string:                 CP2K version 2025.2 (Development Version)
 CP2K| source code revision number:                                  git:e68414f
 CP2K| cp2kflags: omp libint fftw3 libxc libgrpp elpa elpa_nvidia_gpu parallel s
 CP2K|            calapack cosma ace deepmd xsmm dbcsr_acc plumed2 spglib libdft
 CP2K|            td4 mctc-lib tblite sirius libvori libbqb libtorch offload_cud
 CP2K|            da spla_gemm_offloading libvdwxc hdf5 trexio libsmeagol greenx
 CP2K| is freely available from                            https://www.cp2k.org/
 CP2K| Program compiled at                          Sun Nov  2 00:48:36 UTC 2025
 CP2K| Program compiled on                                       buildkitsandbox
 CP2K| Program compiled for                                           local_cuda
 CP2K| Data directory path                                        /opt/cp2k/data
 CP2K| Input file name                                            HAP_322_md.inp

 GLOBAL| Force Environment number                                              1
 GLOBAL| Basis set file name                                        BASIS_MOLOPT
 GLOBAL| Potential file name                                      GTH_POTENTIALS
 GLOBAL| MM Potential file name                                     MM_POTENTIAL
 GLOBAL| Coordinate file name                                      __STD_INPUT__
 GLOBAL| Method name                                                        CP2K
 GLOBAL| Project name                                                 HAP_322_md
 GLOBAL| Run type                                                             MD
 GLOBAL| FFT library                                                       FFTW3
 GLOBAL| Diagonalization library                                            ELPA
 GLOBAL| Cholesky decomposition library                                ScaLAPACK
 GLOBAL| DGEMM library                                                      SPLA
 GLOBAL| Minimum number of eigenvectors for ELPA usage                        16
 GLOBAL| Orthonormality check for eigenvectors enabled                 1.000E-12
 GLOBAL| Matrix multiplication library                                     COSMA
 GLOBAL| All-to-all communication in single precision                          F
 GLOBAL| FFTs using library dependent lengths                                  F
 GLOBAL| Grid backend                                                       AUTO
 GLOBAL| Global print level                                                  LOW
 GLOBAL| MPI I/O enabled                                                       T
 GLOBAL| Total number of message passing processes                             1
 GLOBAL| Number of distributed systems (nodes)                                 1
 GLOBAL| Number of threads for this process                                   16
 GLOBAL| This output is from process                                           0
 GLOBAL| OpenMP stack size per thread (OMP_STACKSIZE)                        16M
 GLOBAL| CPU model name                           Intel(R) Core(TM) Ultra 7 265K
 GLOBAL| CPUID                                                              1002

 MEMORY| system memory details [Kb]
 MEMORY|                        rank 0           min           max       average
 MEMORY| MemTotal             49330332      49330332      49330332      49330332
 MEMORY| MemFree              43648748      43648748      43648748      43648748
 MEMORY| Buffers                 92780         92780         92780         92780
 MEMORY| Cached                4360484       4360484       4360484       4360484
 MEMORY| Slab                   280968        280968        280968        280968
 MEMORY| SReclaimable           178236        178236        178236        178236
 MEMORY| MemLikelyFree        48280248      48280248      48280248      48280248


 GENERATE|  Preliminary Number of Bonds generated:                             0
 GENERATE|  Achieved consistency in connectivity generation.

 *******************************************************************************
 *******************************************************************************
 **                                                                           **
 **     #####                         ##              ##                      **
 **    ##   ##            ##          ##              ##                      **
 **   ##     ##                       ##            ######                    **
 **   ##     ##  ##   ##  ##   #####  ##  ##   ####   ##    #####    #####    **
 **   ##     ##  ##   ##  ##  ##      ## ##   ##      ##   ##   ##  ##   ##   **
 **   ##  ## ##  ##   ##  ##  ##      ####     ###    ##   ######   ######    **
 **    ##  ###   ##   ##  ##  ##      ## ##      ##   ##   ##       ##        **
 **     #######   #####   ##   #####  ##  ##  ####    ##    #####   ##        **
 **           ##                                                    ##        **
 **                                                                           **
 **                                                ... make the atoms dance   **
 **                                                                           **
 **            Copyright (C) by CP2K developers group (2000-2025)             **
 **                      J. Chem. Phys. 152, 194103 (2020)                    **
 **                                                                           **
 *******************************************************************************


 TOTAL NUMBERS AND MAXIMUM NUMBERS

  Total number of            - Atomic kinds:                                   5
                             - Atoms:                                        387
                             - Shell sets:                                   387
                             - Shells:                                      2015
                             - Primitive Cartesian functions:               2031
                             - Cartesian basis functions:                   5338
                             - Spherical basis functions:                   4983

  Maximum angular momentum of- Orbital basis functions:                        2
                             - Local part of the GTH pseudopotential:          2
                             - Non-local part of the GTH pseudopotential:      3


 SCF PARAMETERS         Density guess:                                    ATOMIC
                        --------------------------------------------------------
                        max_scf:                                             100
                        max_scf_history:                                       0
                        max_diis:                                              4
                        --------------------------------------------------------
                        eps_scf:                                        1.00E-05
                        eps_scf_history:                                0.00E+00
                        eps_diis:                                       0.00E+00
                        eps_eigval:                                     1.00E-05
                        --------------------------------------------------------
                        level_shift [a.u.]:                             0.000000
                        --------------------------------------------------------
                        Outer loop SCF in use 
                        No variables optimised in outer loop
                        eps_scf                                         1.00E-05
                        max_scf                                               50
                        No outer loop optimization
                        step_size                                       5.00E-01

 MD_PAR| Molecular dynamics protocol (MD input parameters)
 MD_PAR| Ensemble type                                                       NVT
 MD_PAR| Number of time steps                                                200
 MD_PAR| Time step [fs]                                                 0.250000
 MD_PAR| Temperature [K]                                              973.000000
 MD_PAR| Temperature tolerance [K]                                      0.000000
 MD_PAR| Print MD information every                                    1 step(s)
 MD_PAR| File type   Print frequency [steps]                          File names
 MD_PAR| Coordinates          1                               HAP_322_md-pos.xyz
 MD_PAR| Velocities           1                             HAP_322_md-vel-1.xyz
 MD_PAR| Energies             1                                HAP_322_md-1.ener
 MD_PAR| Dump                20                             HAP_322_md-1.restart

 ROT| Rotational analysis information
 ROT| Principal axes and moments of inertia [a.u.]
 ROT|                           1                   2                   3
 ROT| Eigenvalues      2.52524350897E+09   3.78508692574E+09   5.82058455443E+09
 ROT|      x              0.948276064310     -0.317432443644     -0.003024827077
 ROT|      y              0.317446842020      0.948230232479      0.009323556409
 ROT|      z             -0.000091366811     -0.009801527180      0.999951959705
 ROT| Number of rotovibrational vectors                                        6

 DOF| Calculation of degrees of freedom
 DOF| Number of atoms                                                        387
 DOF| Number of intramolecular constraints                                     0
 DOF| Number of intermolecular constraints                                     0
 DOF| Invariants (translations + rotations)                                    3
 DOF| Degrees of freedom                                                    1158

 DOF| Restraints information
 DOF| Number of intramolecular restraints                                      0
 DOF| Number of intermolecular restraints                                      0

 THERMOSTAT| Thermostat information for PARTICLES
 THERMOSTAT| Type of thermostat            Canonical Sampling/Velocity Rescaling
 THERMOSTAT| CSVR time constant [fs]                                    5.000000
 THERMOSTAT| Initial kinetic energy                           0.000000000000E+00
 THERMOSTAT| End of thermostat information for PARTICLES

 MD_VEL| Velocities initialization
 MD_VEL| Initial temperature [K]                                      973.000000
 MD_VEL| COM velocity            -0.0000000000    -0.0000000000     0.0000000000

 Extrapolation method: initial_guess

 Number of electrons:                                                       2432
 Number of occupied orbitals:                                               1216
 Number of molecular orbitals:                                              1216

 Number of orbital functions:                                               4983
 Number of independent orbital functions:                                   4983


 SCF WAVEFUNCTION OPTIMIZATION

  ----------------------------------- OT ---------------------------------------
  Minimizer      : DIIS                : direct inversion
                                         in the iterative subspace
                                         using   7 DIIS vectors
                                         safer DIIS on
  Preconditioner : FULL_SINGLE_INVERSE : inversion of 
                                         H + eS - 2*(Sc)(c^T*H*c+const)(Sc)^T
  Precond_solver : DEFAULT
  stepsize       :    0.08000000                  energy_gap     :    0.08000000
  eps_taylor     :   0.10000E-15                  max_taylor     :             4
  ----------------------------------- OT ---------------------------------------

  Step     Update method      Time    Convergence         Total energy    Change
  ------------------------------------------------------------------------------
     1 OT DIIS     0.80E-01   21.1     0.01753217     -6706.9369618994 -6.71E+03
     2 OT DIIS     0.80E-01    9.7     0.02089914     -6769.2194582484 -6.23E+01
     3 OT DIIS     0.80E-01    9.6     0.01219752     -6800.7677063522 -3.15E+01
     4 OT DIIS     0.80E-01    9.6     0.00723269     -6828.9004160443 -2.81E+01
     5 OT DIIS     0.80E-01    9.6     0.00630477     -6844.3811097141 -1.55E+01
     6 OT DIIS     0.80E-01    9.7     0.00505371     -6856.1437778818 -1.18E+01
     7 OT DIIS     0.80E-01    9.7     0.00467721     -6865.2958573431 -9.15E+00
     8 OT DIIS     0.80E-01    9.7     0.00369122     -6870.8030076113 -5.51E+00
     9 OT DIIS     0.80E-01    9.7     0.00304144     -6876.8346049677 -6.03E+00
    10 OT DIIS     0.80E-01    9.6     0.00274701     -6879.9565845363 -3.12E+00
    11 OT DIIS     0.80E-01   10.0     0.00227434     -6883.1697166248 -3.21E+00
    12 OT DIIS     0.80E-01    9.7     0.00218316     -6885.7735923471 -2.60E+00
    13 OT DIIS     0.80E-01    9.6     0.00172683     -6886.9219888964 -1.15E+00
    14 OT DIIS     0.80E-01    9.7     0.00138888     -6888.7093379337 -1.79E+00
    15 OT DIIS     0.80E-01    9.7     0.00132983     -6889.5092902434 -8.00E-01
    16 OT DIIS     0.80E-01    9.6     0.00121622     -6890.4121747158 -9.03E-01
    17 OT DIIS     0.80E-01    9.6     0.00109619     -6890.9406995374 -5.29E-01
    18 OT DIIS     0.80E-01    9.6     0.00097939     -6891.4525404951 -5.12E-01
    19 OT DIIS     0.80E-01    9.6     0.00084218     -6891.8717048484 -4.19E-01
    20 OT DIIS     0.80E-01    9.7     0.00074965     -6892.2409848488 -3.69E-01
    21 OT DIIS     0.80E-01    9.9     0.00072551     -6892.5067380287 -2.66E-01
    22 OT DIIS     0.80E-01    9.6     0.00061786     -6892.8136489047 -3.07E-01
    23 OT DIIS     0.80E-01    9.6     0.00058165     -6893.0538890511 -2.40E-01
    24 OT DIIS     0.80E-01    9.7     0.00056705     -6893.2767029726 -2.23E-01
    25 OT DIIS     0.80E-01    9.8     0.00050690     -6893.3992615342 -1.23E-01
    26 OT DIIS     0.80E-01    9.7     0.00047659     -6893.5399011184 -1.41E-01
    27 OT DIIS     0.80E-01    9.7     0.00043866     -6893.6624589461 -1.23E-01
    28 OT DIIS     0.80E-01    9.8     0.00041053     -6893.7844610974 -1.22E-01
    29 OT DIIS     0.80E-01    9.6     0.00039572     -6893.8853954229 -1.01E-01
    30 OT DIIS     0.80E-01    9.8     0.00034856     -6893.9732967508 -8.79E-02
    31 OT DIIS     0.80E-01    9.6     0.00032067     -6894.0569743817 -8.37E-02
    32 OT DIIS     0.80E-01    9.7     0.00031489     -6894.1327129417 -7.57E-02
    33 OT DIIS     0.80E-01    9.8     0.00030227     -6894.1865172227 -5.38E-02
    34 OT DIIS     0.80E-01    9.7     0.00029461     -6894.2490302078 -6.25E-02
    35 OT DIIS     0.80E-01    9.7     0.00027056     -6894.3034694351 -5.44E-02
    36 OT DIIS     0.80E-01    9.6     0.00024818     -6894.3513035658 -4.78E-02
    37 OT DIIS     0.80E-01    9.7     0.00024043     -6894.3923932412 -4.11E-02
    38 OT DIIS     0.80E-01    9.8     0.00022152     -6894.4256610482 -3.33E-02
    39 OT DIIS     0.80E-01    9.7     0.00020923     -6894.4641367562 -3.85E-02
    40 OT DIIS     0.80E-01    9.7     0.00021233     -6894.5037702798 -3.96E-02
    41 OT DIIS     0.80E-01    9.6     0.00019960     -6894.5295216869 -2.58E-02
    42 OT DIIS     0.80E-01    9.7     0.00018970     -6894.5577291287 -2.82E-02
    43 OT DIIS     0.80E-01    9.8     0.00017745     -6894.5803723927 -2.26E-02
    44 OT DIIS     0.80E-01    9.7     0.00016771     -6894.6017509117 -2.14E-02
    45 OT DIIS     0.80E-01    9.7     0.00016603     -6894.6236561831 -2.19E-02
    46 OT DIIS     0.80E-01    9.7     0.00015794     -6894.6419445551 -1.83E-02
    47 OT DIIS     0.80E-01    9.7     0.00014933     -6894.6630510035 -2.11E-02
    48 OT DIIS     0.80E-01    9.7     0.00014430     -6894.6818566591 -1.88E-02
    49 OT DIIS     0.80E-01    9.7     0.00013954     -6894.6938750709 -1.20E-02
    50 OT DIIS     0.80E-01    9.7     0.00013324     -6894.7077433902 -1.39E-02
    51 OT DIIS     0.80E-01    9.7     0.00012987     -6894.7208746236 -1.31E-02
    52 OT DIIS     0.80E-01    9.7     0.00012525     -6894.7340244344 -1.31E-02
    53 OT DIIS     0.80E-01    9.7     0.00012411     -6894.7479323086 -1.39E-02
    54 OT DIIS     0.80E-01    9.8     0.00011529     -6894.7572910577 -9.36E-03
    55 OT DIIS     0.80E-01    9.8     0.00010821     -6894.7677738570 -1.05E-02
    56 OT DIIS     0.80E-01    9.7     0.00010729     -6894.7778320429 -1.01E-02
    57 OT DIIS     0.80E-01    9.7     0.00010576     -6894.7857019130 -7.87E-03
    58 OT DIIS     0.80E-01   10.0     0.00010381     -6894.7955054816 -9.80E-03
    59 OT DIIS     0.80E-01    9.8     0.00010078     -6894.8043669272 -8.86E-03
    60 OT DIIS     0.80E-01    9.8     0.00009464     -6894.8120891963 -7.72E-03
    61 OT DIIS     0.80E-01    9.8     0.00009155     -6894.8194662555 -7.38E-03
    62 OT DIIS     0.80E-01    9.6     0.00008801     -6894.8247966344 -5.33E-03
    63 OT DIIS     0.80E-01    9.7     0.00008544     -6894.8318912229 -7.09E-03
    64 OT DIIS     0.80E-01    9.8     0.00008552     -6894.8397796783 -7.89E-03
    65 OT DIIS     0.80E-01    9.9     0.00008525     -6894.8455471602 -5.77E-03
    66 OT DIIS     0.80E-01    9.7     0.00008038     -6894.8516901044 -6.14E-03
    67 OT DIIS     0.80E-01    9.7     0.00007672     -6894.8566524212 -4.96E-03
    68 OT DIIS     0.80E-01    9.7     0.00007385     -6894.8610600461 -4.41E-03
    69 OT DIIS     0.80E-01    9.8     0.00007380     -6894.8664828351 -5.42E-03
    70 OT DIIS     0.80E-01    9.8     0.00007313     -6894.8708570470 -4.37E-03
    71 OT DIIS     0.80E-01    9.7     0.00006970     -6894.8767307168 -5.87E-03
    72 OT DIIS     0.80E-01   10.0     0.00006829     -6894.8820408157 -5.31E-03
    73 OT DIIS     0.80E-01    9.9     0.00006550     -6894.8852946555 -3.25E-03
    74 OT DIIS     0.80E-01    9.8     0.00006336     -6894.8887499080 -3.46E-03
    75 OT DIIS     0.80E-01    9.6     0.00006309     -6894.8923832363 -3.63E-03
    76 OT DIIS     0.80E-01    9.6     0.00006264     -6894.8965792186 -4.20E-03
    77 OT DIIS     0.80E-01    9.7     0.00006242     -6894.9016077660 -5.03E-03
    78 OT DIIS     0.80E-01    9.8     0.00005935     -6894.9047978341 -3.19E-03
    79 OT DIIS     0.80E-01    9.7     0.00005568     -6894.9081078628 -3.31E-03
    80 OT DIIS     0.80E-01    9.7     0.00005416     -6894.9109365480 -2.83E-03
    81 OT DIIS     0.80E-01    9.8     0.00005522     -6894.9135978044 -2.66E-03
    82 OT DIIS     0.80E-01    9.7     0.00005532     -6894.9173951298 -3.80E-03
    83 OT DIIS     0.80E-01    9.7     0.00005489     -6894.9212271733 -3.83E-03
    84 OT DIIS     0.80E-01    9.6     0.00005150     -6894.9244357243 -3.21E-03
    85 OT DIIS     0.80E-01    9.7     0.00004919     -6894.9272612218 -2.83E-03
    86 OT DIIS     0.80E-01    9.6     0.00004740     -6894.9288639255 -1.60E-03
    87 OT DIIS     0.80E-01    9.9     0.00004649     -6894.9310930400 -2.23E-03
    88 OT DIIS     0.80E-01    9.8     0.00004813     -6894.9347443669 -3.65E-03
    89 OT DIIS     0.80E-01    9.8     0.00004938     -6894.9379244051 -3.18E-03
    90 OT DIIS     0.80E-01    9.6     0.00004606     -6894.9410027890 -3.08E-03
    91 OT DIIS     0.80E-01    9.6     0.00004300     -6894.9430702994 -2.07E-03
    92 OT DIIS     0.80E-01    9.7     0.00004100     -6894.9444903350 -1.42E-03
    93 OT DIIS     0.80E-01    9.7     0.00004077     -6894.9462266162 -1.74E-03
    94 OT DIIS     0.80E-01   10.0     0.00004307     -6894.9487079606 -2.48E-03
    95 OT DIIS     0.80E-01    9.8     0.00004264     -6894.9521484540 -3.44E-03
    96 OT DIIS     0.80E-01    9.7     0.00003994     -6894.9552972844 -3.15E-03
    97 OT DIIS     0.80E-01    9.7     0.00003770     -6894.9569801972 -1.68E-03
    98 OT DIIS     0.80E-01    9.7     0.00003551     -6894.9581487621 -1.17E-03
    99 OT DIIS     0.80E-01    9.6     0.00003514     -6894.9592118649 -1.06E-03
   100 OT DIIS     0.80E-01    9.8     0.00003730     -6894.9616664963 -2.45E-03

  Leaving inner SCF loop after reaching   100 steps.


  Electronic density on regular grids:      -2432.0000000001       -0.0000000001
  Core density on regular grids:             2431.9999999988       -0.0000000012
  Total charge density on r-space grids:       -0.0000000012
  Total charge density g-space grids:          -0.0000000012

  Overlap energy of the core charge distribution:               0.00001736885999
  Self energy of the core charge distribution:             -16017.19408509233290
  Core Hamiltonian energy:                                   4240.21868207321677
  Hartree energy:                                            6176.59963799993056
  Exchange-correlation energy:                              -1292.89366057297548
  Dispersion energy:                                           -1.69225827302315

  Total energy:                                             -6894.96166649632414

  outer SCF iter =    1 RMS gradient =   0.37E-04 energy =      -6894.9616664963

  ----------------------------------- OT ---------------------------------------
  Minimizer      : DIIS                : direct inversion
                                         in the iterative subspace
                                         using   7 DIIS vectors
                                         safer DIIS on
  Preconditioner : FULL_SINGLE_INVERSE : inversion of 
                                         H + eS - 2*(Sc)(c^T*H*c+const)(Sc)^T
  Precond_solver : DEFAULT
  stepsize       :    0.08000000                  energy_gap     :    0.08000000
  eps_taylor     :   0.10000E-15                  max_taylor     :             4
  ----------------------------------- OT ---------------------------------------

  Step     Update method      Time    Convergence         Total energy    Change
  ------------------------------------------------------------------------------
     1 OT DIIS     0.80E-01   28.6     0.00018244     -6894.9647818564 -3.12E-03
     2 OT DIIS     0.80E-01    9.0     0.00018571     -6894.9755356932 -1.08E-02
     3 OT DIIS     0.80E-01    9.0     0.00021004     -6894.9786965846 -3.16E-03
     4 OT DIIS     0.80E-01    9.3     0.00017266     -6894.9835615764 -4.86E-03
     5 OT DIIS     0.80E-01    9.1     0.00011942     -6894.9895750308 -6.01E-03
     6 OT DIIS     0.80E-01    9.7     0.00011236     -6894.9925867676 -3.01E-03
     7 OT DIIS     0.80E-01    9.8     0.00008928     -6894.9959181596 -3.33E-03
     8 OT DIIS     0.80E-01    9.7     0.00008307     -6894.9987272895 -2.81E-03
     9 OT DIIS     0.80E-01    9.7     0.00007456     -6895.0006218173 -1.89E-03
    10 OT DIIS     0.80E-01    9.6     0.00007186     -6895.0036045521 -2.98E-03
    11 OT DIIS     0.80E-01    9.7     0.00006629     -6895.0063209219 -2.72E-03
    12 OT DIIS     0.80E-01    9.9     0.00006360     -6895.0093576716 -3.04E-03
    13 OT DIIS     0.80E-01    9.7     0.00006158     -6895.0125451490 -3.19E-03
    14 OT DIIS     0.80E-01    9.7     0.00005750     -6895.0151486379 -2.60E-03
    15 OT DIIS     0.80E-01    9.8     0.00005541     -6895.0178312491 -2.68E-03
    16 OT DIIS     0.80E-01    9.7     0.00005380     -6895.0204083679 -2.58E-03
    17 OT DIIS     0.80E-01    9.7     0.00004943     -6895.0225257591 -2.12E-03
    18 OT DIIS     0.80E-01    9.7     0.00004781     -6895.0248185547 -2.29E-03
    19 OT DIIS     0.80E-01    9.9     0.00004604     -6895.0266002823 -1.78E-03
    20 OT DIIS     0.80E-01    9.7     0.00004244     -6895.0281653965 -1.57E-03
    21 OT DIIS     0.80E-01    9.9     0.00004106     -6895.0297297137 -1.56E-03
    22 OT DIIS     0.80E-01    9.8     0.00004039     -6895.0311517863 -1.42E-03
    23 OT DIIS     0.80E-01    9.7     0.00003795     -6895.0325705802 -1.42E-03
    24 OT DIIS     0.80E-01    9.7     0.00003615     -6895.0337682224 -1.20E-03
    25 OT DIIS     0.80E-01    9.7     0.00003501     -6895.0347931250 -1.02E-03
    26 OT DIIS     0.80E-01    9.7     0.00003378     -6895.0359967990 -1.20E-03
    27 OT DIIS     0.80E-01    9.7     0.00003287     -6895.0369527681 -9.56E-04
    28 OT DIIS     0.80E-01    9.7     0.00003228     -6895.0380232788 -1.07E-03
    29 OT DIIS     0.80E-01    9.8     0.00003129     -6895.0391037676 -1.08E-03
    30 OT DIIS     0.80E-01    9.7     0.00002860     -6895.0397462635 -6.42E-04
    31 OT DIIS     0.80E-01    9.7     0.00002886     -6895.0405809000 -8.35E-04
    32 OT DIIS     0.80E-01    9.8     0.00002904     -6895.0414993976 -9.18E-04
    33 OT DIIS     0.80E-01    9.9     0.00002722     -6895.0422468381 -7.47E-04
    34 OT DIIS     0.80E-01    9.7     0.00002649     -6895.0430366028 -7.90E-04
    35 OT DIIS     0.80E-01    9.7     0.00002586     -6895.0436110484 -5.74E-04
    36 OT DIIS     0.80E-01    9.8     0.00002318     -6895.0440410974 -4.30E-04
    37 OT DIIS     0.80E-01    9.7     0.00002474     -6895.0447727771 -7.32E-04
    38 OT DIIS     0.80E-01    9.7     0.00002560     -6895.0453007960 -5.28E-04
    39 OT DIIS     0.80E-01    9.8     0.00002433     -6895.0458847325 -5.84E-04
    40 OT DIIS     0.80E-01    9.8     0.00002162     -6895.0463399161 -4.55E-04
    41 OT DIIS     0.80E-01    9.8     0.00002095     -6895.0466883868 -3.48E-04
    42 OT DIIS     0.80E-01    9.7     0.00001980     -6895.0470236592 -3.35E-04
    43 OT DIIS     0.80E-01    9.7     0.00002159     -6895.0474303920 -4.07E-04
    44 OT DIIS     0.80E-01    9.6     0.00001997     -6895.0477388107 -3.08E-04
    45 OT DIIS     0.80E-01    9.7     0.00002167     -6895.0481580511 -4.19E-04
    46 OT DIIS     0.80E-01    9.6     0.00001859     -6895.0485101793 -3.52E-04
    47 OT DIIS     0.80E-01    9.8     0.00001718     -6895.0488521511 -3.42E-04
    48 OT DIIS     0.80E-01    9.7     0.00001702     -6895.0490093511 -1.57E-04
    49 OT DIIS     0.80E-01    9.8     0.00002203     -6895.0490875323 -7.82E-05
    50 OT DIIS     0.80E-01    9.7     0.00001569     -6895.0494310553 -3.44E-04
    51 OT DIIS     0.80E-01    9.7     0.00001709     -6895.0498860814 -4.55E-04
    52 OT DIIS     0.80E-01    9.8     0.00001563     -6895.0500832416 -1.97E-04
    53 OT DIIS     0.80E-01    9.8     0.00001544     -6895.0504893088 -4.06E-04
    54 OT DIIS     0.80E-01    9.8     0.00001456     -6895.0506731165 -1.84E-04
    55 OT DIIS     0.80E-01    9.7     0.00001794     -6895.0506867660 -1.36E-05
    56 OT DIIS     0.80E-01    9.7     0.00001639     -6895.0509779924 -2.91E-04
    57 OT DIIS     0.80E-01    9.8     0.00001825     -6895.0510688078 -9.08E-05
    58 OT DIIS     0.80E-01    9.6     0.00001347     -6895.0512038639 -1.35E-04
    59 OT DIIS     0.80E-01    9.7     0.00001394     -6895.0514213423 -2.17E-04
    60 OT DIIS     0.80E-01    9.7     0.00001457     -6895.0516746242 -2.53E-04
    61 OT SD       0.80E-01    9.8     0.00001601     -6895.0516650493  9.57E-06
    62 OT DIIS     0.80E-01   10.0     0.00005301     -6895.0516107833  5.43E-05
    63 OT DIIS     0.80E-01    9.6     0.00001262     -6895.0518577607 -2.47E-04
    64 OT DIIS     0.80E-01    9.8     0.00001272     -6895.0521170694 -2.59E-04
    65 OT SD       0.80E-01    9.6     0.00001422     -6895.0523065207 -1.89E-04
    66 OT DIIS     0.80E-01    9.8     0.00004543     -6895.0522707426  3.58E-05
    67 OT DIIS     0.80E-01    9.9     0.00001093     -6895.0525015726 -2.31E-04
    68 OT DIIS     0.80E-01    9.7     0.00001066     -6895.0527575380 -2.56E-04
    69 OT DIIS     0.80E-01    9.8     0.00001018     -6895.0528349862 -7.74E-05
    70 OT DIIS     0.80E-01    9.8     0.00000964     -6895.0530421655 -2.07E-04

  *** SCF run converged in    70 steps ***


  Electronic density on regular grids:      -2432.0000000002       -0.0000000002
  Core density on regular grids:             2431.9999999988       -0.0000000012
  Total charge density on r-space grids:       -0.0000000013
  Total charge density g-space grids:          -0.0000000013

  Overlap energy of the core charge distribution:               0.00001736885999
  Self energy of the core charge distribution:             -16017.19408509233290
  Core Hamiltonian energy:                                   4239.91685390102157
  Hartree energy:                                            6176.78225640322671
  Exchange-correlation energy:                              -1292.86582647326122
  Dispersion energy:                                           -1.69225827302315

  Total energy:                                             -6895.05304216550758

  outer SCF iter =    2 RMS gradient =   0.96E-05 energy =      -6895.0530421655
  outer SCF loop converged in   2 iterations or  170 steps


 ENERGY| Total FORCE_EVAL ( QS ) energy [hartree]          -6895.053126671256905

 MD_INI| MD initialization
 MD_INI| Potential energy [hartree]                          -0.689505312667E+04
 MD_INI| Kinetic energy [hartree]                             0.178407925950E+01
 MD_INI| Temperature [K]                                              973.000000
 MD_INI| Pressure [bar]                                       6.461654763936E+03
 MD_INI| Cell volume [bohr^3]                                 1.308601720879E+05
 MD_INI| Cell volume [ang^3]                                  1.939147658976E+04
 MD_INI| Cell lengths [bohr]      6.16914211E+01  4.40970598E+01  4.81031015E+01
 MD_INI| Cell lengths [ang]       3.26456940E+01  2.33351590E+01  2.54550650E+01
 MD_INI| Cell angles [deg]        9.00000000E+01  9.00000000E+01  9.00000000E+01

 Extrapolation method: ASPC

 Number of electrons:                                                       2432
 Number of occupied orbitals:                                               1216
 Number of molecular orbitals:                                              1216

 Number of orbital functions:                                               4983
 Number of independent orbital functions:                                   4983


 SCF WAVEFUNCTION OPTIMIZATION

  ----------------------------------- OT ---------------------------------------
  Minimizer      : DIIS                : direct inversion
                                         in the iterative subspace
                                         using   7 DIIS vectors
                                         safer DIIS on
  Preconditioner : FULL_SINGLE_INVERSE : inversion of 
                                         H + eS - 2*(Sc)(c^T*H*c+const)(Sc)^T
  Precond_solver : DEFAULT
  stepsize       :    0.08000000                  energy_gap     :    0.08000000
  eps_taylor     :   0.10000E-15                  max_taylor     :             4
  ----------------------------------- OT ---------------------------------------

  Step     Update method      Time    Convergence         Total energy    Change
  ------------------------------------------------------------------------------
     1 OT DIIS     0.80E-01   15.4     0.00007016     -6895.0771837974 -6.90E+03
     2 OT DIIS     0.80E-01    9.8     0.00005704     -6895.0785236398 -1.34E-03
     3 OT DIIS     0.80E-01    9.7     0.00006583     -6895.0788494099 -3.26E-04
     4 OT DIIS     0.80E-01    9.7     0.00007028     -6895.0790694997 -2.20E-04
     5 OT DIIS     0.80E-01    9.6     0.00003765     -6895.0793978843 -3.28E-04
     6 OT DIIS     0.80E-01    9.6     0.00002564     -6895.0795417930 -1.44E-04
     7 OT DIIS     0.80E-01    9.8     0.00001944     -6895.0796029196 -6.11E-05
     8 OT DIIS     0.80E-01    9.7     0.00001368     -6895.0796538068 -5.09E-05
     9 OT DIIS     0.80E-01    9.7     0.00001183     -6895.0796909306 -3.71E-05
    10 OT DIIS     0.80E-01    9.7     0.00001107     -6895.0797243281 -3.34E-05
    11 OT DIIS     0.80E-01    9.7     0.00001061     -6895.0797637766 -3.94E-05
    12 OT DIIS     0.80E-01    9.7     0.00001015     -6895.0798065964 -4.28E-05
    13 OT DIIS     0.80E-01    9.7     0.00001057     -6895.0798475076 -4.09E-05
    14 OT DIIS     0.80E-01    9.7     0.00001000     -6895.0798913501 -4.38E-05

  *** SCF run converged in    14 steps ***


  Electronic density on regular grids:      -2432.0000000000        0.0000000000
  Core density on regular grids:             2431.9999999988       -0.0000000012
  Total charge density on r-space grids:       -0.0000000011
  Total charge density g-space grids:          -0.0000000011

  Overlap energy of the core charge distribution:               0.00001610823721
  Self energy of the core charge distribution:             -16017.19408509233290
  Core Hamiltonian energy:                                   4239.81987482256045
  Hartree energy:                                            6176.83297845841480
  Exchange-correlation energy:                              -1292.84641023620020
  Dispersion energy:                                           -1.69226541078755

  Total energy:                                             -6895.07989135010848

  outer SCF iter =    1 RMS gradient =   0.10E-04 energy =      -6895.0798913501
  outer SCF loop converged in   1 iterations or   14 steps


 ENERGY| Total FORCE_EVAL ( QS ) energy [hartree]          -6895.079943688574531

 MD| ***************************************************************************
 MD| Step number                                                               1
 MD| Time [fs]                                                          0.250000
 MD| Conserved quantity [hartree]                            -0.689326979984E+04
 MD| ---------------------------------------------------------------------------
 MD|                                          Instantaneous             Averages
 MD| CPU time per MD step [s]                   1884.622896          1884.622896
 MD| Energy drift per atom [K]          -0.613950235266E+00   0.000000000000E+00
 MD| Potential energy [hartree]         -0.689507994369E+04  -0.689507994369E+04
 MD| Kinetic energy [hartree]            0.181269854711E+01   0.181269854711E+01
 MD| Temperature [K]                             988.608369           988.608369
 MD| Pressure [bar]                      6.399531300205E+03   6.399531300205E+03
 MD| ***************************************************************************
 MD| Estimated peak process memory after this step [MiB]                   17526

 Extrapolation method: ASPC

 Number of electrons:                                                       2432
 Number of occupied orbitals:                                               1216
 Number of molecular orbitals:                                              1216

 Number of orbital functions:                                               4983
 Number of independent orbital functions:                                   4983


 SCF WAVEFUNCTION OPTIMIZATION

  ----------------------------------- OT ---------------------------------------
  Minimizer      : DIIS                : direct inversion
                                         in the iterative subspace
                                         using   7 DIIS vectors
                                         safer DIIS on
  Preconditioner : FULL_SINGLE_INVERSE : inversion of 
                                         H + eS - 2*(Sc)(c^T*H*c+const)(Sc)^T
  Precond_solver : DEFAULT
  stepsize       :    0.08000000                  energy_gap     :    0.08000000
  eps_taylor     :   0.10000E-15                  max_taylor     :             4
  ----------------------------------- OT ---------------------------------------

  Step     Update method      Time    Convergence         Total energy    Change
  ------------------------------------------------------------------------------
     1 OT DIIS     0.80E-01   15.2     0.00002296     -6895.1305393553 -6.90E+03
     2 OT DIIS     0.80E-01    9.6     0.00004909     -6895.1305881966 -4.88E-05
     3 OT DIIS     0.80E-01    9.8     0.00002522     -6895.1306806040 -9.24E-05
     4 OT DIIS     0.80E-01    9.6     0.00001902     -6895.1307282765 -4.77E-05
     5 OT DIIS     0.80E-01    9.7     0.00001505     -6895.1307666356 -3.84E-05
     6 OT DIIS     0.80E-01    9.7     0.00001076     -6895.1308045388 -3.79E-05
     7 OT DIIS     0.80E-01    9.8     0.00000937     -6895.1308314102 -2.69E-05

  *** SCF run converged in     7 steps ***


  Electronic density on regular grids:      -2431.9999999996        0.0000000004
  Core density on regular grids:             2431.9999999988       -0.0000000012
  Total charge density on r-space grids:       -0.0000000008
  Total charge density g-space grids:          -0.0000000008

  Overlap energy of the core charge distribution:               0.00001409018717
  Self energy of the core charge distribution:             -16017.19408509233290
  Core Hamiltonian energy:                                   4239.67087215262927
  Hartree energy:                                            6176.90450598756615
  Exchange-correlation energy:                              -1292.81990848295209
  Dispersion energy:                                           -1.69223006531421

  Total energy:                                             -6895.13083141021798

  outer SCF iter =    1 RMS gradient =   0.94E-05 energy =      -6895.1308314102
  outer SCF loop converged in   1 iterations or    7 steps


 ENERGY| Total FORCE_EVAL ( QS ) energy [hartree]          -6895.130858366223038

 MD| ***************************************************************************
 MD| Step number                                                               2
 MD| Time [fs]                                                          0.500000
 MD| Conserved quantity [hartree]                            -0.689327078703E+04
 MD| ---------------------------------------------------------------------------
 MD|                                          Instantaneous             Averages
 MD| CPU time per MD step [s]                    104.000962           994.311929
 MD| Energy drift per atom [K]          -0.141945073033E+01  -0.709725365163E+00
 MD| Potential energy [hartree]         -0.689513085837E+04  -0.689510540103E+04
 MD| Kinetic energy [hartree]            0.188193136910E+01   0.184731495810E+01
 MD| Temperature [K]                            1026.366521          1007.487445
 MD| Pressure [bar]                      6.321937269433E+03   6.360734284819E+03
 MD| ***************************************************************************
 MD| Estimated peak process memory after this step [MiB]                   17526

 Extrapolation method: ASPC

 Number of electrons:                                                       2432
 Number of occupied orbitals:                                               1216
 Number of molecular orbitals:                                              1216

 Number of orbital functions:                                               4983
 Number of independent orbital functions:                                   4983


 SCF WAVEFUNCTION OPTIMIZATION

  ----------------------------------- OT ---------------------------------------
  Minimizer      : DIIS                : direct inversion
                                         in the iterative subspace
                                         using   7 DIIS vectors
                                         safer DIIS on
  Preconditioner : FULL_SINGLE_INVERSE : inversion of 
                                         H + eS - 2*(Sc)(c^T*H*c+const)(Sc)^T
  Precond_solver : DEFAULT
  stepsize       :    0.08000000                  energy_gap     :    0.08000000
  eps_taylor     :   0.10000E-15                  max_taylor     :             4
  ----------------------------------- OT ---------------------------------------

  Step     Update method      Time    Convergence         Total energy    Change
  ------------------------------------------------------------------------------
     1 OT DIIS     0.80E-01   14.9     0.00001979     -6895.1993348553 -6.90E+03
     2 OT DIIS     0.80E-01    9.6     0.00006705     -6895.1992107076  1.24E-04
     3 OT DIIS     0.80E-01    9.7     0.00001713     -6895.1994003866 -1.90E-04
     4 OT DIIS     0.80E-01    9.7     0.00001263     -6895.1994202009 -1.98E-05
     5 OT DIIS     0.80E-01    9.6     0.00001036     -6895.1994434337 -2.32E-05
     6 OT DIIS     0.80E-01    9.7     0.00000878     -6895.1994768281 -3.34E-05

  *** SCF run converged in     6 steps ***


  Electronic density on regular grids:      -2431.9999999995        0.0000000005
  Core density on regular grids:             2431.9999999988       -0.0000000012
  Total charge density on r-space grids:       -0.0000000007
  Total charge density g-space grids:          -0.0000000007

  Overlap energy of the core charge distribution:               0.00001217471389
  Self energy of the core charge distribution:             -16017.19408509233290
  Core Hamiltonian energy:                                   4239.48236258332327
  Hartree energy:                                            6176.99231819197939
  Exchange-correlation energy:                              -1292.78793034998080
  Dispersion energy:                                           -1.69215433576126

  Total energy:                                             -6895.19947682805741

  outer SCF iter =    1 RMS gradient =   0.88E-05 energy =      -6895.1994768281
  outer SCF loop converged in   1 iterations or    6 steps


 ENERGY| Total FORCE_EVAL ( QS ) energy [hartree]          -6895.199506451325760

 MD| ***************************************************************************
 MD| Step number                                                               3
 MD| Time [fs]                                                          0.750000
 MD| Conserved quantity [hartree]                            -0.689327193424E+04
 MD| ---------------------------------------------------------------------------
 MD|                                          Instantaneous             Averages
 MD| CPU time per MD step [s]                     93.890912           694.171590
 MD| Energy drift per atom [K]          -0.235552052064E+01  -0.125832375032E+01
 MD| Potential energy [hartree]         -0.689519950645E+04  -0.689513676950E+04
 MD| Kinetic energy [hartree]            0.195627428812E+01   0.188363473477E+01
 MD| Temperature [K]                            1066.911614          1027.295501
 MD| Pressure [bar]                      6.194540832125E+03   6.305336467254E+03
 MD| ***************************************************************************
 MD| Estimated peak process memory after this step [MiB]                   17526

 Extrapolation method: ASPC

 Number of electrons:                                                       2432
 Number of occupied orbitals:                                               1216
 Number of molecular orbitals:                                              1216

 Number of orbital functions:                                               4983
 Number of independent orbital functions:                                   4983


 SCF WAVEFUNCTION OPTIMIZATION

  ----------------------------------- OT ---------------------------------------
  Minimizer      : DIIS                : direct inversion
                                         in the iterative subspace
                                         using   7 DIIS vectors
                                         safer DIIS on
  Preconditioner : FULL_SINGLE_INVERSE : inversion of 
                                         H + eS - 2*(Sc)(c^T*H*c+const)(Sc)^T
  Precond_solver : DEFAULT
  stepsize       :    0.08000000                  energy_gap     :    0.08000000
  eps_taylor     :   0.10000E-15                  max_taylor     :             4
  ----------------------------------- OT ---------------------------------------

  Step     Update method      Time    Convergence         Total energy    Change
  ------------------------------------------------------------------------------
     1 OT DIIS     0.80E-01   15.0     0.00002349     -6895.2783917773 -6.90E+03
     2 OT DIIS     0.80E-01    9.5     0.00008946     -6895.2781135359  2.78E-04
     3 OT DIIS     0.80E-01    9.5     0.00001723     -6895.2784492560 -3.36E-04
     4 OT DIIS     0.80E-01    9.5     0.00001244     -6895.2784664744 -1.72E-05
     5 OT DIIS     0.80E-01    9.5     0.00000828     -6895.2784825933 -1.61E-05

  *** SCF run converged in     5 steps ***


  Electronic density on regular grids:      -2431.9999999993        0.0000000007
  Core density on regular grids:             2431.9999999988       -0.0000000012
  Total charge density on r-space grids:       -0.0000000005
  Total charge density g-space grids:          -0.0000000005

  Overlap energy of the core charge distribution:               0.00001084672335
  Self energy of the core charge distribution:             -16017.19408509233290
  Core Hamiltonian energy:                                   4239.27020979621193
  Hartree energy:                                            6177.09007868726985
  Exchange-correlation energy:                              -1292.75265770959709
  Dispersion energy:                                           -1.69203912160259

  Total energy:                                             -6895.27848259332768

  outer SCF iter =    1 RMS gradient =   0.83E-05 energy =      -6895.2784825933
  outer SCF loop converged in   1 iterations or    5 steps


 ENERGY| Total FORCE_EVAL ( QS ) energy [hartree]          -6895.278497585004516

 MD| ***************************************************************************
 MD| Step number                                                               4
 MD| Time [fs]                                                          1.000000
 MD| Conserved quantity [hartree]                            -0.689327305223E+04
 MD| ---------------------------------------------------------------------------
 MD|                                          Instantaneous             Averages
 MD| CPU time per MD step [s]                     84.784065           541.824709
 MD| Energy drift per atom [K]          -0.326775436209E+01  -0.176068140326E+01
 MD| Potential energy [hartree]         -0.689527849759E+04  -0.689517220152E+04
 MD| Kinetic energy [hartree]            0.204733642524E+01   0.192456015739E+01
 MD| Temperature [K]                            1116.575024          1049.615382
 MD| Pressure [bar]                      6.058521269271E+03   6.243632667759E+03
 MD| ***************************************************************************
 MD| Estimated peak process memory after this step [MiB]                   17526

 Extrapolation method: ASPC

 Number of electrons:                                                       2432
 Number of occupied orbitals:                                               1216
 Number of molecular orbitals:                                              1216

 Number of orbital functions:                                               4983
 Number of independent orbital functions:                                   4983


 SCF WAVEFUNCTION OPTIMIZATION

  ----------------------------------- OT ---------------------------------------
  Minimizer      : DIIS                : direct inversion
                                         in the iterative subspace
                                         using   7 DIIS vectors
                                         safer DIIS on
  Preconditioner : FULL_SINGLE_INVERSE : inversion of 
                                         H + eS - 2*(Sc)(c^T*H*c+const)(Sc)^T
  Precond_solver : DEFAULT
  stepsize       :    0.08000000                  energy_gap     :    0.08000000
  eps_taylor     :   0.10000E-15                  max_taylor     :             4
  ----------------------------------- OT ---------------------------------------

  Step     Update method      Time    Convergence         Total energy    Change
  ------------------------------------------------------------------------------
     1 OT DIIS     0.80E-01   14.4     0.00002643     -6895.3604038436 -6.90E+03
     2 OT DIIS     0.80E-01    9.7     0.00009184     -6895.3601263060  2.78E-04
     3 OT DIIS     0.80E-01    9.7     0.00002608     -6895.3604662052 -3.40E-04
     4 OT DIIS     0.80E-01    9.6     0.00001113     -6895.3605046206 -3.84E-05
     5 OT DIIS     0.80E-01    9.7     0.00000954     -6895.3605206465 -1.60E-05

  *** SCF run converged in     5 steps ***


  Electronic density on regular grids:      -2432.0000000006       -0.0000000006
  Core density on regular grids:             2431.9999999988       -0.0000000012
  Total charge density on r-space grids:       -0.0000000018
  Total charge density g-space grids:          -0.0000000018

  Overlap energy of the core charge distribution:               0.00001012649225
  Self energy of the core charge distribution:             -16017.19408509233290
  Core Hamiltonian energy:                                   4239.04100540737454
  Hartree energy:                                            6177.19825116015545
  Exchange-correlation energy:                              -1292.71381757447830
  Dispersion energy:                                           -1.69188467371190

  Total energy:                                             -6895.36052064650085

  outer SCF iter =    1 RMS gradient =   0.95E-05 energy =      -6895.3605206465
  outer SCF loop converged in   1 iterations or    5 steps


 ENERGY| Total FORCE_EVAL ( QS ) energy [hartree]          -6895.360540131992821

 MD| ***************************************************************************
 MD| Step number                                                               5
 MD| Time [fs]                                                          1.250000
 MD| Conserved quantity [hartree]                            -0.689327394865E+04
 MD| ---------------------------------------------------------------------------
 MD|                                          Instantaneous             Averages
 MD| CPU time per MD step [s]                     85.383880           450.536543
 MD| Energy drift per atom [K]          -0.399918958104E+01  -0.220838303882E+01
 MD| Potential energy [hartree]         -0.689536054013E+04  -0.689520986924E+04
 MD| Kinetic energy [hartree]            0.211977369426E+01   0.196360286476E+01
 MD| Temperature [K]                            1156.080815          1070.908468
 MD| Pressure [bar]                      5.885259950000E+03   6.171958124207E+03
 MD| ***************************************************************************
 MD| Estimated peak process memory after this step [MiB]                   17526

 Extrapolation method: ASPC

 Number of electrons:                                                       2432
 Number of occupied orbitals:                                               1216
 Number of molecular orbitals:                                              1216

 Number of orbital functions:                                               4983
 Number of independent orbital functions:                                   4983


 SCF WAVEFUNCTION OPTIMIZATION

  ----------------------------------- OT ---------------------------------------
  Minimizer      : DIIS                : direct inversion
                                         in the iterative subspace
                                         using   7 DIIS vectors
                                         safer DIIS on
  Preconditioner : FULL_SINGLE_INVERSE : inversion of 
                                         H + eS - 2*(Sc)(c^T*H*c+const)(Sc)^T
  Precond_solver : DEFAULT
  stepsize       :    0.08000000                  energy_gap     :    0.08000000
  eps_taylor     :   0.10000E-15                  max_taylor     :             4
  ----------------------------------- OT ---------------------------------------

  Step     Update method      Time    Convergence         Total energy    Change
  ------------------------------------------------------------------------------
     1 OT DIIS     0.80E-01   14.8     0.00003462     -6895.4396517058 -6.90E+03
     2 OT DIIS     0.80E-01    9.7     0.00013263     -6895.4390284974  6.23E-04
     3 OT DIIS     0.80E-01    9.6     0.00003010     -6895.4397505628 -7.22E-04
     4 OT DIIS     0.80E-01    9.8     0.00001518     -6895.4397978250 -4.73E-05
     5 OT DIIS     0.80E-01    9.7     0.00001114     -6895.4398257995 -2.80E-05
     6 OT DIIS     0.80E-01    9.8     0.00001134     -6895.4398511729 -2.54E-05
     7 OT DIIS     0.80E-01    9.8     0.00001021     -6895.4399021425 -5.10E-05
     8 OT DIIS     0.80E-01    9.9     0.00000922     -6895.4399571408 -5.50E-05

  *** SCF run converged in     8 steps ***


  Electronic density on regular grids:      -2432.0000000017       -0.0000000017
  Core density on regular grids:             2431.9999999988       -0.0000000012
  Total charge density on r-space grids:       -0.0000000029
  Total charge density g-space grids:          -0.0000000029

  Overlap energy of the core charge distribution:               0.00000980811774
  Self energy of the core charge distribution:             -16017.19408509233290
  Core Hamiltonian energy:                                   4238.80832359275882
  Hartree energy:                                            6177.31118792512007
  Exchange-correlation energy:                              -1292.67369602648364
  Dispersion energy:                                           -1.69169734800475

  Total energy:                                             -6895.43995714082394

  outer SCF iter =    1 RMS gradient =   0.92E-05 energy =      -6895.4399571408
  outer SCF loop converged in   1 iterations or    8 steps


 ENERGY| Total FORCE_EVAL ( QS ) energy [hartree]          -6895.439981772752617

 MD| ***************************************************************************
 MD| Step number                                                               6
 MD| Time [fs]                                                          1.500000
 MD| Conserved quantity [hartree]                            -0.689327461038E+04
 MD| ---------------------------------------------------------------------------
 MD|                                          Instantaneous             Averages
 MD| CPU time per MD step [s]                    115.215637           394.649725
 MD| Energy drift per atom [K]          -0.453913089507E+01  -0.259684101486E+01
 MD| Potential energy [hartree]         -0.689543998177E+04  -0.689524822133E+04
 MD| Kinetic energy [hartree]            0.220404318015E+01   0.200367625066E+01
 MD| Temperature [K]                            1202.039653          1092.763666
 MD| Pressure [bar]                      5.738842984819E+03   6.099772267642E+03
 MD| ***************************************************************************
 MD| Estimated peak process memory after this step [MiB]                   17526

 Extrapolation method: ASPC

 Number of electrons:                                                       2432
 Number of occupied orbitals:                                               1216
 Number of molecular orbitals:                                              1216

 Number of orbital functions:                                               4983
 Number of independent orbital functions:                                   4983


 SCF WAVEFUNCTION OPTIMIZATION

  ----------------------------------- OT ---------------------------------------
  Minimizer      : DIIS                : direct inversion
                                         in the iterative subspace
                                         using   7 DIIS vectors
                                         safer DIIS on
  Preconditioner : FULL_SINGLE_INVERSE : inversion of 
                                         H + eS - 2*(Sc)(c^T*H*c+const)(Sc)^T
  Precond_solver : DEFAULT
  stepsize       :    0.08000000                  energy_gap     :    0.08000000
  eps_taylor     :   0.10000E-15                  max_taylor     :             4
  ----------------------------------- OT ---------------------------------------

  Step     Update method      Time    Convergence         Total energy    Change
  ------------------------------------------------------------------------------
     1 OT DIIS     0.80E-01   15.1     0.00004519     -6895.5125950127 -6.90E+03
     2 OT DIIS     0.80E-01    9.6     0.00015969     -6895.5116011130  9.94E-04
     3 OT DIIS     0.80E-01    9.8     0.00004601     -6895.5126745957 -1.07E-03
     4 OT DIIS     0.80E-01    9.7     0.00001457     -6895.5127771943 -1.03E-04
     5 OT DIIS     0.80E-01    9.6     0.00001035     -6895.5127931346 -1.59E-05
     6 OT DIIS     0.80E-01    9.8     0.00000900     -6895.5128073520 -1.42E-05

  *** SCF run converged in     6 steps ***


  Electronic density on regular grids:      -2432.0000000028       -0.0000000028
  Core density on regular grids:             2431.9999999988       -0.0000000012
  Total charge density on r-space grids:       -0.0000000040
  Total charge density g-space grids:          -0.0000000040

  Overlap energy of the core charge distribution:               0.00000969290049
  Self energy of the core charge distribution:             -16017.19408509233290
  Core Hamiltonian energy:                                   4238.58240897046562
  Hartree energy:                                            6177.42346200775773
  Exchange-correlation energy:                              -1292.63311694962840
  Dispersion energy:                                           -1.69148598120081

  Total energy:                                             -6895.51280735203909

  outer SCF iter =    1 RMS gradient =   0.90E-05 energy =      -6895.5128073520
  outer SCF loop converged in   1 iterations or    6 steps


 ENERGY| Total FORCE_EVAL ( QS ) energy [hartree]          -6895.512822767639591

 MD| ***************************************************************************
 MD| Step number                                                               7
 MD| Time [fs]                                                          1.750000
 MD| Conserved quantity [hartree]                            -0.689327501298E+04
 MD| ---------------------------------------------------------------------------
 MD|                                          Instantaneous             Averages
 MD| CPU time per MD step [s]                     95.855224           351.964797
 MD| Energy drift per atom [K]          -0.486763898420E+01  -0.292124072477E+01
 MD| Potential energy [hartree]         -0.689551282277E+04  -0.689528602154E+04
 MD| Kinetic energy [hartree]            0.223804784891E+01   0.203715790755E+01
 MD| Temperature [K]                            1220.585098          1111.023870
 MD| Pressure [bar]                      5.537516752193E+03   6.019450051150E+03
 MD| ***************************************************************************
 MD| Estimated peak process memory after this step [MiB]                   17526

 Extrapolation method: ASPC

 Number of electrons:                                                       2432
 Number of occupied orbitals:                                               1216
 Number of molecular orbitals:                                              1216

 Number of orbital functions:                                               4983
 Number of independent orbital functions:                                   4983


 SCF WAVEFUNCTION OPTIMIZATION

  ----------------------------------- OT ---------------------------------------
  Minimizer      : DIIS                : direct inversion
                                         in the iterative subspace
                                         using   7 DIIS vectors
                                         safer DIIS on
  Preconditioner : FULL_SINGLE_INVERSE : inversion of 
                                         H + eS - 2*(Sc)(c^T*H*c+const)(Sc)^T
  Precond_solver : DEFAULT
  stepsize       :    0.08000000                  energy_gap     :    0.08000000
  eps_taylor     :   0.10000E-15                  max_taylor     :             4
  ----------------------------------- OT ---------------------------------------

  Step     Update method      Time    Convergence         Total energy    Change
  ------------------------------------------------------------------------------
     1 OT DIIS     0.80E-01   14.7     0.00004350     -6895.5764232937 -6.90E+03
     2 OT DIIS     0.80E-01    9.8     0.00014063     -6895.5757742057  6.49E-04
     3 OT DIIS     0.80E-01    9.7     0.00004076     -6895.5765980813 -8.24E-04
     4 OT DIIS     0.80E-01    9.7     0.00002141     -6895.5766819783 -8.39E-05
     5 OT DIIS     0.80E-01    9.8     0.00001413     -6895.5767200519 -3.81E-05
     6 OT DIIS     0.80E-01    9.7     0.00001378     -6895.5767504770 -3.04E-05
     7 OT DIIS     0.80E-01    9.7     0.00001195     -6895.5768013424 -5.09E-05
     8 OT DIIS     0.80E-01    9.7     0.00001082     -6895.5768486705 -4.73E-05
     9 OT DIIS     0.80E-01    9.7     0.00001007     -6895.5768721413 -2.35E-05
    10 OT DIIS     0.80E-01    9.7     0.00000860     -6895.5769181813 -4.60E-05

  *** SCF run converged in    10 steps ***


  Electronic density on regular grids:      -2432.0000000039       -0.0000000039
  Core density on regular grids:             2431.9999999988       -0.0000000012
  Total charge density on r-space grids:       -0.0000000051
  Total charge density g-space grids:          -0.0000000051

  Overlap energy of the core charge distribution:               0.00000966642028
  Self energy of the core charge distribution:             -16017.19408509233290
  Core Hamiltonian energy:                                   4238.36810574011906
  Hartree energy:                                            6177.53468717104988
  Exchange-correlation energy:                              -1292.59438097724637
  Dispersion energy:                                           -1.69125468932754

  Total energy:                                             -6895.57691818131661

  outer SCF iter =    1 RMS gradient =   0.86E-05 energy =      -6895.5769181813
  outer SCF loop converged in   1 iterations or   10 steps


 ENERGY| Total FORCE_EVAL ( QS ) energy [hartree]          -6895.576938620499277

 MD| ***************************************************************************
 MD| Step number                                                               8
 MD| Time [fs]                                                          2.000000
 MD| Conserved quantity [hartree]                            -0.689327524366E+04
 MD| ---------------------------------------------------------------------------
 MD|                                          Instantaneous             Averages
 MD| CPU time per MD step [s]                    134.625890           324.797433
 MD| Energy drift per atom [K]          -0.505585794394E+01  -0.318806787716E+01
 MD| Potential energy [hartree]         -0.689557693862E+04  -0.689532238617E+04
 MD| Kinetic energy [hartree]            0.225676800543E+01   0.206460916979E+01
 MD| Temperature [K]                            1230.794684          1125.995222
 MD| Pressure [bar]                      5.339917869935E+03   5.934508528498E+03
 MD| ***************************************************************************
 MD| Estimated peak process memory after this step [MiB]                   17526

 Extrapolation method: ASPC

 Number of electrons:                                                       2432
 Number of occupied orbitals:                                               1216
 Number of molecular orbitals:                                              1216

 Number of orbital functions:                                               4983
 Number of independent orbital functions:                                   4983


 SCF WAVEFUNCTION OPTIMIZATION

  ----------------------------------- OT ---------------------------------------
  Minimizer      : DIIS                : direct inversion
                                         in the iterative subspace
                                         using   7 DIIS vectors
                                         safer DIIS on
  Preconditioner : FULL_SINGLE_INVERSE : inversion of 
                                         H + eS - 2*(Sc)(c^T*H*c+const)(Sc)^T
  Precond_solver : DEFAULT
  stepsize       :    0.08000000                  energy_gap     :    0.08000000
  eps_taylor     :   0.10000E-15                  max_taylor     :             4
  ----------------------------------- OT ---------------------------------------

  Step     Update method      Time    Convergence         Total energy    Change
  ------------------------------------------------------------------------------
     1 OT DIIS     0.80E-01   14.9     0.00004830     -6895.6313267722 -6.90E+03
     2 OT DIIS     0.80E-01    9.7     0.00018196     -6895.6300501418  1.28E-03
     3 OT DIIS     0.80E-01    9.8     0.00004210     -6895.6314508760 -1.40E-03
     4 OT DIIS     0.80E-01    9.7     0.00001555     -6895.6315459938 -9.51E-05
     5 OT DIIS     0.80E-01    9.7     0.00001220     -6895.6315693405 -2.33E-05
     6 OT DIIS     0.80E-01    9.7     0.00001164     -6895.6315979532 -2.86E-05
     7 OT DIIS     0.80E-01    9.8     0.00001000     -6895.6316370924 -3.91E-05
     8 OT DIIS     0.80E-01    9.6     0.00000953     -6895.6316773417 -4.02E-05

  *** SCF run converged in     8 steps ***


  Electronic density on regular grids:      -2432.0000000051       -0.0000000051
  Core density on regular grids:             2431.9999999988       -0.0000000012
  Total charge density on r-space grids:       -0.0000000062
  Total charge density g-space grids:          -0.0000000062

  Overlap energy of the core charge distribution:               0.00000968525943
  Self energy of the core charge distribution:             -16017.19408509233290
  Core Hamiltonian energy:                                   4238.17258804558060
  Hartree energy:                                            6177.63903823254714
  Exchange-correlation energy:                              -1292.55822077528546
  Dispersion energy:                                           -1.69100743742345

  Total energy:                                             -6895.63167734165563

  outer SCF iter =    1 RMS gradient =   0.95E-05 energy =      -6895.6316773417
  outer SCF loop converged in   1 iterations or    8 steps


 ENERGY| Total FORCE_EVAL ( QS ) energy [hartree]          -6895.631698213682284

 MD| ***************************************************************************
 MD| Step number                                                               9
 MD| Time [fs]                                                          2.250000
 MD| Conserved quantity [hartree]                            -0.689327536465E+04
 MD| ---------------------------------------------------------------------------
 MD|                                          Instantaneous             Averages
 MD| CPU time per MD step [s]                    115.290989           301.518939
 MD| Energy drift per atom [K]          -0.515458669974E+01  -0.340656996856E+01
 MD| Potential energy [hartree]         -0.689563169821E+04  -0.689535675418E+04
 MD| Kinetic energy [hartree]            0.226240119022E+01   0.208658606095E+01
 MD| Temperature [K]                            1233.866907          1137.980965
 MD| Pressure [bar]                      5.151869950423E+03   5.847548686489E+03
 MD| ***************************************************************************
 MD| Estimated peak process memory after this step [MiB]                   17526

 Extrapolation method: ASPC

 Number of electrons:                                                       2432
 Number of occupied orbitals:                                               1216
 Number of molecular orbitals:                                              1216

 Number of orbital functions:                                               4983
 Number of independent orbital functions:                                   4983


 SCF WAVEFUNCTION OPTIMIZATION

  ----------------------------------- OT ---------------------------------------
  Minimizer      : DIIS                : direct inversion
                                         in the iterative subspace
                                         using   7 DIIS vectors
                                         safer DIIS on
  Preconditioner : FULL_SINGLE_INVERSE : inversion of 
                                         H + eS - 2*(Sc)(c^T*H*c+const)(Sc)^T
  Precond_solver : DEFAULT
  stepsize       :    0.08000000                  energy_gap     :    0.08000000
  eps_taylor     :   0.10000E-15                  max_taylor     :             4
  ----------------------------------- OT ---------------------------------------

  Step     Update method      Time    Convergence         Total energy    Change
  ------------------------------------------------------------------------------
     1 OT DIIS     0.80E-01   15.2     0.00004713     -6895.6772008497 -6.90E+03
     2 OT DIIS     0.80E-01    9.7     0.00017068     -6895.6760594275  1.14E-03
     3 OT DIIS     0.80E-01    9.7     0.00004520     -6895.6773109703 -1.25E-03
     4 OT DIIS     0.80E-01    9.7     0.00001343     -6895.6774163978 -1.05E-04
     5 OT DIIS     0.80E-01    9.5     0.00001232     -6895.6774400130 -2.36E-05
     6 OT DIIS     0.80E-01    9.7     0.00001168     -6895.6774678060 -2.78E-05
     7 OT DIIS     0.80E-01    9.7     0.00000999     -6895.6774978385 -3.00E-05

  *** SCF run converged in     7 steps ***


  Electronic density on regular grids:      -2432.0000000058       -0.0000000058
  Core density on regular grids:             2431.9999999988       -0.0000000012
  Total charge density on r-space grids:       -0.0000000070
  Total charge density g-space grids:          -0.0000000070

  Overlap energy of the core charge distribution:               0.00000974674692
  Self energy of the core charge distribution:             -16017.19408509233290
  Core Hamiltonian energy:                                   4237.99378262796472
  Hartree energy:                                            6177.73680827114276
  Exchange-correlation energy:                              -1292.52326250284818
  Dispersion energy:                                           -1.69075088921787

  Total energy:                                             -6895.67749783854561

  outer SCF iter =    1 RMS gradient =   0.10E-04 energy =      -6895.6774978385
  outer SCF loop converged in   1 iterations or    7 steps


 ENERGY| Total FORCE_EVAL ( QS ) energy [hartree]          -6895.677536746284204

 MD| ***************************************************************************
 MD| Step number                                                              10
 MD| Time [fs]                                                          2.500000
 MD| Conserved quantity [hartree]                            -0.689327532908E+04
 MD| ---------------------------------------------------------------------------
 MD|                                          Instantaneous             Averages
 MD| CPU time per MD step [s]                    105.362937           281.903339
 MD| Energy drift per atom [K]          -0.512556350306E+01  -0.357846932201E+01
 MD| Potential energy [hartree]         -0.689567753675E+04  -0.689538883243E+04
 MD| Kinetic energy [hartree]            0.230920765722E+01   0.210884822058E+01
 MD| Temperature [K]                            1259.394188          1150.122287
 MD| Pressure [bar]                      5.052377076410E+03   5.768031525482E+03
 MD| ***************************************************************************
 MD| Estimated peak process memory after this step [MiB]                   17526

 Extrapolation method: ASPC

 Number of electrons:                                                       2432
 Number of occupied orbitals:                                               1216
 Number of molecular orbitals:                                              1216

 Number of orbital functions:                                               4983
 Number of independent orbital functions:                                   4983


 SCF WAVEFUNCTION OPTIMIZATION

  ----------------------------------- OT ---------------------------------------
  Minimizer      : DIIS                : direct inversion
                                         in the iterative subspace
                                         using   7 DIIS vectors
                                         safer DIIS on
  Preconditioner : FULL_SINGLE_INVERSE : inversion of 
                                         H + eS - 2*(Sc)(c^T*H*c+const)(Sc)^T
  Precond_solver : DEFAULT
  stepsize       :    0.08000000                  energy_gap     :    0.08000000
  eps_taylor     :   0.10000E-15                  max_taylor     :             4
  ----------------------------------- OT ---------------------------------------

  Step     Update method      Time    Convergence         Total energy    Change
  ------------------------------------------------------------------------------
     1 OT DIIS     0.80E-01   14.3     0.00004851     -6895.7149775188 -6.90E+03
     2 OT DIIS     0.80E-01    9.8     0.00015964     -6895.7139427570  1.03E-03
     3 OT DIIS     0.80E-01    9.9     0.00005155     -6895.7150885784 -1.15E-03
     4 OT DIIS     0.80E-01    9.8     0.00001681     -6895.7152063298 -1.18E-04
     5 OT DIIS     0.80E-01    9.7     0.00001258     -6895.7152340332 -2.77E-05
     6 OT DIIS     0.80E-01    9.8     0.00001065     -6895.7152551386 -2.11E-05
     7 OT DIIS     0.80E-01    9.8     0.00001036     -6895.7152936465 -3.85E-05
     8 OT DIIS     0.80E-01    9.9     0.00000997     -6895.7153511832 -5.75E-05

  *** SCF run converged in     8 steps ***


  Electronic density on regular grids:      -2432.0000000057       -0.0000000057
  Core density on regular grids:             2431.9999999988       -0.0000000012
  Total charge density on r-space grids:       -0.0000000069
  Total charge density g-space grids:          -0.0000000069

  Overlap energy of the core charge distribution:               0.00000986655131
  Self energy of the core charge distribution:             -16017.19408509233290
  Core Hamiltonian energy:                                   4237.82914462734061
  Hartree energy:                                            6177.82929406051790
  Exchange-correlation energy:                              -1292.48922328564436
  Dispersion energy:                                           -1.69049135960450

  Total energy:                                             -6895.71535118317115

  outer SCF iter =    1 RMS gradient =   0.10E-04 energy =      -6895.7153511832
  outer SCF loop converged in   1 iterations or    8 steps


 ENERGY| Total FORCE_EVAL ( QS ) energy [hartree]          -6895.715373365774212

 MD| ***************************************************************************
 MD| Step number                                                              11
 MD| Time [fs]                                                          2.750000
 MD| Conserved quantity [hartree]                            -0.689327516756E+04
 MD| ---------------------------------------------------------------------------
 MD|                                          Instantaneous             Averages
 MD| CPU time per MD step [s]                    115.335315           266.760792
 MD| Energy drift per atom [K]          -0.499376617080E+01  -0.370713267190E+01
 MD| Potential energy [hartree]         -0.689571537337E+04  -0.689541851797E+04
 MD| Kinetic energy [hartree]            0.235117310214E+01   0.213087775526E+01
 MD| Temperature [K]                            1282.281275          1162.136741
 MD| Pressure [bar]                      4.969682059019E+03   5.695454301258E+03
 MD| ***************************************************************************
 MD| Estimated peak process memory after this step [MiB]                   17526

 Extrapolation method: ASPC

 Number of electrons:                                                       2432
 Number of occupied orbitals:                                               1216
 Number of molecular orbitals:                                              1216

 Number of orbital functions:                                               4983
 Number of independent orbital functions:                                   4983


 SCF WAVEFUNCTION OPTIMIZATION

  ----------------------------------- OT ---------------------------------------
  Minimizer      : DIIS                : direct inversion
                                         in the iterative subspace
                                         using   7 DIIS vectors
                                         safer DIIS on
  Preconditioner : FULL_SINGLE_INVERSE : inversion of 
                                         H + eS - 2*(Sc)(c^T*H*c+const)(Sc)^T
  Precond_solver : DEFAULT
  stepsize       :    0.08000000                  energy_gap     :    0.08000000
  eps_taylor     :   0.10000E-15                  max_taylor     :             4
[...]
    17 OT DIIS     0.80E-01   11.9     0.00001483     -6897.5809673207 -2.29E-04
    18 OT DIIS     0.80E-01   11.6     0.00001529     -6897.5811311494 -1.64E-04
    19 OT DIIS     0.80E-01   11.4     0.00001400     -6897.5812990544 -1.68E-04
    20 OT DIIS     0.80E-01   11.1     0.00001373     -6897.5814877306 -1.89E-04
    21 OT DIIS     0.80E-01   11.4     0.00001347     -6897.5816929610 -2.05E-04
    22 OT DIIS     0.80E-01   11.3     0.00001284     -6897.5818517762 -1.59E-04
    23 OT DIIS     0.80E-01   11.4     0.00001252     -6897.5820418904 -1.90E-04
    24 OT DIIS     0.80E-01   11.8     0.00001177     -6897.5822222133 -1.80E-04
    25 OT DIIS     0.80E-01   11.2     0.00001201     -6897.5824352835 -2.13E-04
    26 OT DIIS     0.80E-01   11.2     0.00001145     -6897.5826082246 -1.73E-04
    27 OT DIIS     0.80E-01   11.5     0.00001100     -6897.5827589384 -1.51E-04
    28 OT DIIS     0.80E-01   11.2     0.00001041     -6897.5829263836 -1.67E-04
    29 OT DIIS     0.80E-01   11.7     0.00001020     -6897.5830920496 -1.66E-04
    30 OT DIIS     0.80E-01   11.4     0.00001014     -6897.5832092909 -1.17E-04
    31 OT DIIS     0.80E-01   11.9     0.00001003     -6897.5833517704 -1.42E-04
    32 OT DIIS     0.80E-01   11.4     0.00000913     -6897.5834731665 -1.21E-04

  *** SCF run converged in    32 steps ***


  Electronic density on regular grids:      -2431.9999999879        0.0000000121
  Core density on regular grids:             2431.9999999988       -0.0000000012
  Total charge density on r-space grids:        0.0000000109
  Total charge density g-space grids:           0.0000000109

  Overlap energy of the core charge distribution:               0.00004624453431
  Self energy of the core charge distribution:             -16017.19408509233290
  Core Hamiltonian energy:                                   4242.95627099705507
  Hartree energy:                                            6172.83986119421570
  Exchange-correlation energy:                              -1294.51169029517860
  Dispersion energy:                                           -1.67387621479153

  Total energy:                                             -6897.58347316649815

  outer SCF iter =    1 RMS gradient =   0.91E-05 energy =      -6897.5834731665
  outer SCF loop converged in   1 iterations or   32 steps


 ENERGY| Total FORCE_EVAL ( QS ) energy [hartree]          -6897.583582961427055

 MD| ***************************************************************************
 MD| Step number                                                             172
 MD| Time [fs]                                                         43.000000
 MD| Conserved quantity [hartree]                            -0.689327393470E+04
 MD| ---------------------------------------------------------------------------
 MD|                                          Instantaneous             Averages
 MD| CPU time per MD step [s]                    400.751952           471.688574
 MD| Energy drift per atom [K]          -0.398781060961E+01  -0.352529519251E+01
 MD| Potential energy [hartree]         -0.689758358296E+04  -0.689655378219E+04
 MD| Kinetic energy [hartree]            0.206051589902E+01   0.207353068784E+01
 MD| Temperature [K]                            1123.762837          1130.860834
 MD| Pressure [bar]                      8.708688123014E+03   3.306048211895E+03
 MD| ***************************************************************************
 MD| Estimated peak process memory after this step [MiB]                   18716

 Extrapolation method: ASPC

 Number of electrons:                                                       2432
 Number of occupied orbitals:                                               1216
 Number of molecular orbitals:                                              1216

 Number of orbital functions:                                               4983
 Number of independent orbital functions:                                   4983


 SCF WAVEFUNCTION OPTIMIZATION

  ----------------------------------- OT ---------------------------------------
  Minimizer      : DIIS                : direct inversion
                                         in the iterative subspace
                                         using   7 DIIS vectors
                                         safer DIIS on
  Preconditioner : FULL_SINGLE_INVERSE : inversion of 
                                         H + eS - 2*(Sc)(c^T*H*c+const)(Sc)^T
  Precond_solver : DEFAULT
  stepsize       :    0.08000000                  energy_gap     :    0.08000000
  eps_taylor     :   0.10000E-15                  max_taylor     :             4
  ----------------------------------- OT ---------------------------------------

  Step     Update method      Time    Convergence         Total energy    Change
  ------------------------------------------------------------------------------
     1 OT DIIS     0.80E-01   18.3     0.00046346     -6897.5337676703 -6.90E+03
     2 OT DIIS     0.80E-01   10.5     0.00058815     -6897.5425516198 -8.78E-03
     3 OT DIIS     0.80E-01   10.7     0.00029324     -6897.5666195864 -2.41E-02
     4 OT DIIS     0.80E-01   10.9     0.00012553     -6897.5726605151 -6.04E-03
     5 OT DIIS     0.80E-01   10.7     0.00015712     -6897.5738204395 -1.16E-03
     6 OT DIIS     0.80E-01   10.7     0.00008684     -6897.5751600950 -1.34E-03
     7 OT DIIS     0.80E-01   10.7     0.00005710     -6897.5762663229 -1.11E-03
     8 OT DIIS     0.80E-01   10.7     0.00006222     -6897.5769880651 -7.22E-04
     9 OT DIIS     0.80E-01   10.5     0.00004620     -6897.5777556021 -7.68E-04
    10 OT DIIS     0.80E-01   11.0     0.00003867     -6897.5782037875 -4.48E-04
    11 OT DIIS     0.80E-01   11.0     0.00003032     -6897.5786273398 -4.24E-04
    12 OT DIIS     0.80E-01   10.9     0.00002709     -6897.5789184440 -2.91E-04
    13 OT DIIS     0.80E-01   10.5     0.00002490     -6897.5791357252 -2.17E-04
    14 OT DIIS     0.80E-01   10.4     0.00002247     -6897.5793023560 -1.67E-04
    15 OT DIIS     0.80E-01   10.7     0.00002233     -6897.5794454176 -1.43E-04
    16 OT DIIS     0.80E-01   10.6     0.00001849     -6897.5795769633 -1.32E-04
    17 OT DIIS     0.80E-01   10.3     0.00001890     -6897.5796844300 -1.07E-04
    18 OT DIIS     0.80E-01   10.6     0.00001689     -6897.5798137941 -1.29E-04
    19 OT DIIS     0.80E-01   11.3     0.00001442     -6897.5799278554 -1.14E-04
    20 OT DIIS     0.80E-01   11.3     0.00001597     -6897.5800261964 -9.83E-05
    21 OT DIIS     0.80E-01   11.2     0.00001384     -6897.5801332282 -1.07E-04
    22 OT DIIS     0.80E-01   11.5     0.00001482     -6897.5802161510 -8.29E-05
    23 OT DIIS     0.80E-01   11.7     0.00001449     -6897.5803097820 -9.36E-05
    24 OT DIIS     0.80E-01   11.6     0.00001368     -6897.5803733700 -6.36E-05
    25 OT DIIS     0.80E-01   11.6     0.00001402     -6897.5804535978 -8.02E-05
    26 OT DIIS     0.80E-01   11.2     0.00001350     -6897.5805004501 -4.69E-05
    27 OT DIIS     0.80E-01   11.2     0.00001175     -6897.5805695896 -6.91E-05
    28 OT DIIS     0.80E-01   11.0     0.00001321     -6897.5806247296 -5.51E-05
    29 OT DIIS     0.80E-01   10.9     0.00001128     -6897.5806607041 -3.60E-05
    30 OT DIIS     0.80E-01   11.4     0.00001226     -6897.5806943913 -3.37E-05
    31 OT DIIS     0.80E-01   11.1     0.00001157     -6897.5807168148 -2.24E-05
    32 OT DIIS     0.80E-01   11.2     0.00001070     -6897.5807496778 -3.29E-05
    33 OT DIIS     0.80E-01   11.1     0.00001073     -6897.5807688748 -1.92E-05
    34 OT DIIS     0.80E-01   11.3     0.00001006     -6897.5807858370 -1.70E-05
    35 OT DIIS     0.80E-01   11.7     0.00000938     -6897.5808056880 -1.99E-05

  *** SCF run converged in    35 steps ***


  Electronic density on regular grids:      -2431.9999999868        0.0000000132
  Core density on regular grids:             2431.9999999988       -0.0000000012
  Total charge density on r-space grids:        0.0000000120
  Total charge density g-space grids:           0.0000000120

  Overlap energy of the core charge distribution:               0.00004660795321
  Self energy of the core charge distribution:             -16017.19408509233290
  Core Hamiltonian energy:                                   4242.86342304450591
  Hartree energy:                                            6172.91068104565329
  Exchange-correlation energy:                              -1294.48664209425465
  Dispersion energy:                                           -1.67422919951605

  Total energy:                                             -6897.58080568799141

  outer SCF iter =    1 RMS gradient =   0.94E-05 energy =      -6897.5808056880
  outer SCF loop converged in   1 iterations or   35 steps


 ENERGY| Total FORCE_EVAL ( QS ) energy [hartree]          -6897.580825493532757

 MD| ***************************************************************************
 MD| Step number                                                             173
 MD| Time [fs]                                                         43.250000
 MD| Conserved quantity [hartree]                            -0.689327383019E+04
 MD| ---------------------------------------------------------------------------
 MD|                                          Instantaneous             Averages
 MD| CPU time per MD step [s]                    427.875863           471.435322
 MD| Energy drift per atom [K]          -0.390253014878E+01  -0.352747574139E+01
 MD| Potential energy [hartree]         -0.689758082549E+04  -0.689655971885E+04
 MD| Kinetic energy [hartree]            0.201495283667E+01   0.207319208755E+01
 MD| Temperature [K]                            1098.913683          1130.676168
 MD| Pressure [bar]                      8.285756944207E+03   3.334832655434E+03
 MD| ***************************************************************************
 MD| Estimated peak process memory after this step [MiB]                   18716

 Extrapolation method: ASPC

 Number of electrons:                                                       2432
 Number of occupied orbitals:                                               1216
 Number of molecular orbitals:                                              1216

 Number of orbital functions:                                               4983
 Number of independent orbital functions:                                   4983


 SCF WAVEFUNCTION OPTIMIZATION

  ----------------------------------- OT ---------------------------------------
  Minimizer      : DIIS                : direct inversion
                                         in the iterative subspace
                                         using   7 DIIS vectors
                                         safer DIIS on
  Preconditioner : FULL_SINGLE_INVERSE : inversion of 
                                         H + eS - 2*(Sc)(c^T*H*c+const)(Sc)^T
  Precond_solver : DEFAULT
  stepsize       :    0.08000000                  energy_gap     :    0.08000000
  eps_taylor     :   0.10000E-15                  max_taylor     :             4
  ----------------------------------- OT ---------------------------------------

  Step     Update method      Time    Convergence         Total energy    Change
  ------------------------------------------------------------------------------
     1 OT DIIS     0.80E-01   17.6     0.00063723     -6897.5182091330 -6.90E+03
     2 OT DIIS     0.80E-01   10.5     0.00118822     -6897.4691468060  4.91E-02
     3 OT DIIS     0.80E-01   10.5     0.00022868     -6897.5737176395 -1.05E-01
     4 OT DIIS     0.80E-01   10.6     0.00018927     -6897.5786779841 -4.96E-03
     5 OT DIIS     0.80E-01   11.3     0.00020015     -6897.5801981294 -1.52E-03
     6 OT DIIS     0.80E-01   10.8     0.00007752     -6897.5832457283 -3.05E-03
     7 OT DIIS     0.80E-01   10.9     0.00006377     -6897.5848907875 -1.65E-03
     8 OT DIIS     0.80E-01   11.0     0.00008251     -6897.5857057558 -8.15E-04
     9 OT DIIS     0.80E-01   11.1     0.00004082     -6897.5867707158 -1.06E-03
    10 OT DIIS     0.80E-01   11.5     0.00004232     -6897.5873714949 -6.01E-04
    11 OT DIIS     0.80E-01   11.5     0.00003905     -6897.5878369273 -4.65E-04
    12 OT DIIS     0.80E-01   11.4     0.00002586     -6897.5882012671 -3.64E-04
    13 OT DIIS     0.80E-01   11.4     0.00002441     -6897.5885609004 -3.60E-04
    14 OT DIIS     0.80E-01   11.3     0.00002225     -6897.5887658503 -2.05E-04
    15 OT DIIS     0.80E-01   11.4     0.00002123     -6897.5889376001 -1.72E-04
    16 OT DIIS     0.80E-01   10.8     0.00001683     -6897.5891155948 -1.78E-04
    17 OT DIIS     0.80E-01   10.9     0.00001721     -6897.5892784290 -1.63E-04
    18 OT DIIS     0.80E-01   10.7     0.00001586     -6897.5893943976 -1.16E-04
    19 OT DIIS     0.80E-01   10.9     0.00001418     -6897.5895553972 -1.61E-04
    20 OT DIIS     0.80E-01   10.9     0.00001467     -6897.5896729957 -1.18E-04
    21 OT DIIS     0.80E-01   10.9     0.00001327     -6897.5897978694 -1.25E-04
    22 OT DIIS     0.80E-01   11.1     0.00001226     -6897.5899348552 -1.37E-04
    23 OT DIIS     0.80E-01   10.8     0.00001259     -6897.5900536986 -1.19E-04
    24 OT DIIS     0.80E-01   10.8     0.00001146     -6897.5901837919 -1.30E-04
    25 OT DIIS     0.80E-01   10.6     0.00001126     -6897.5903093909 -1.26E-04
    26 OT DIIS     0.80E-01   10.8     0.00001111     -6897.5904049406 -9.55E-05
    27 OT DIIS     0.80E-01   11.0     0.00001022     -6897.5905180239 -1.13E-04
    28 OT DIIS     0.80E-01   10.6     0.00001016     -6897.5906228902 -1.05E-04
    29 OT DIIS     0.80E-01   10.5     0.00000997     -6897.5907217680 -9.89E-05

  *** SCF run converged in    29 steps ***


  Electronic density on regular grids:      -2431.9999999858        0.0000000142
  Core density on regular grids:             2431.9999999988       -0.0000000012
  Total charge density on r-space grids:        0.0000000131
  Total charge density g-space grids:           0.0000000131

  Overlap energy of the core charge distribution:               0.00003436500424
  Self energy of the core charge distribution:             -16017.19408509233290
  Core Hamiltonian energy:                                   4242.71110263237370
  Hartree energy:                                            6173.01551018587179
  Exchange-correlation energy:                              -1294.44870982709881
  Dispersion energy:                                           -1.67457403182247

  Total energy:                                             -6897.59072176800601

  outer SCF iter =    1 RMS gradient =   0.10E-04 energy =      -6897.5907217680
  outer SCF loop converged in   1 iterations or   29 steps


 ENERGY| Total FORCE_EVAL ( QS ) energy [hartree]          -6897.590814926737039

 MD| ***************************************************************************
 MD| Step number                                                             174
 MD| Time [fs]                                                         43.500000
 MD| Conserved quantity [hartree]                            -0.689327279344E+04
 MD| ---------------------------------------------------------------------------
 MD|                                          Instantaneous             Averages
 MD| CPU time per MD step [s]                    358.271548           470.784955
 MD| Energy drift per atom [K]          -0.305659099992E+01  -0.352476950725E+01
 MD| Potential energy [hartree]         -0.689759081493E+04  -0.689656564469E+04
 MD| Kinetic energy [hartree]            0.197976465637E+01   0.207265514829E+01
 MD| Temperature [K]                            1079.722776          1130.383333
 MD| Pressure [bar]                      7.499448560904E+03   3.358767229603E+03
 MD| ***************************************************************************
 MD| Estimated peak process memory after this step [MiB]                   18716

 Extrapolation method: ASPC

 Number of electrons:                                                       2432
 Number of occupied orbitals:                                               1216
 Number of molecular orbitals:                                              1216

 Number of orbital functions:                                               4983
 Number of independent orbital functions:                                   4983


 SCF WAVEFUNCTION OPTIMIZATION

  ----------------------------------- OT ---------------------------------------
  Minimizer      : DIIS                : direct inversion
                                         in the iterative subspace
                                         using   7 DIIS vectors
                                         safer DIIS on
  Preconditioner : FULL_SINGLE_INVERSE : inversion of 
                                         H + eS - 2*(Sc)(c^T*H*c+const)(Sc)^T
  Precond_solver : DEFAULT
  stepsize       :    0.08000000                  energy_gap     :    0.08000000
  eps_taylor     :   0.10000E-15                  max_taylor     :             4
  ----------------------------------- OT ---------------------------------------

  Step     Update method      Time    Convergence         Total energy    Change
  ------------------------------------------------------------------------------
     1 OT DIIS     0.80E-01   16.6     0.00057054     -6897.5699238578 -6.90E+03
     2 OT DIIS     0.80E-01    9.9     0.00090679     -6897.5284883072  4.14E-02
     3 OT DIIS     0.80E-01   10.1     0.00013420     -6897.6045937453 -7.61E-02
     4 OT DIIS     0.80E-01   10.4     0.00009136     -6897.6064163927 -1.82E-03
     5 OT DIIS     0.80E-01   10.0     0.00010151     -6897.6068008569 -3.84E-04
     6 OT DIIS     0.80E-01   10.1     0.00004498     -6897.6075247078 -7.24E-04
     7 OT DIIS     0.80E-01   10.7     0.00004818     -6897.6078923547 -3.68E-04
     8 OT DIIS     0.80E-01   10.5     0.00003531     -6897.6082822701 -3.90E-04
     9 OT DIIS     0.80E-01   10.7     0.00003284     -6897.6086466545 -3.64E-04
    10 OT DIIS     0.80E-01   10.5     0.00002893     -6897.6088591763 -2.13E-04
    11 OT DIIS     0.80E-01   10.4     0.00002138     -6897.6091760206 -3.17E-04
    12 OT DIIS     0.80E-01   10.6     0.00002567     -6897.6092974636 -1.21E-04
    13 OT DIIS     0.80E-01   10.6     0.00001950     -6897.6095227567 -2.25E-04
    14 OT DIIS     0.80E-01   10.9     0.00002013     -6897.6096365570 -1.14E-04
    15 OT DIIS     0.80E-01   10.8     0.00001774     -6897.6097969619 -1.60E-04
    16 OT DIIS     0.80E-01   11.0     0.00001836     -6897.6099237558 -1.27E-04
    17 OT DIIS     0.80E-01   10.9     0.00001631     -6897.6100765669 -1.53E-04
    18 OT DIIS     0.80E-01   10.9     0.00001486     -6897.6102314456 -1.55E-04
    19 OT DIIS     0.80E-01   11.1     0.00001501     -6897.6103457474 -1.14E-04
    20 OT DIIS     0.80E-01   11.0     0.00001501     -6897.6104988107 -1.53E-04
    21 OT DIIS     0.80E-01   11.0     0.00001489     -6897.6105652162 -6.64E-05
    22 OT DIIS     0.80E-01   10.7     0.00001501     -6897.6107068688 -1.42E-04
    23 OT DIIS     0.80E-01   10.8     0.00001363     -6897.6108044440 -9.76E-05
    24 OT DIIS     0.80E-01   10.8     0.00001504     -6897.6109040641 -9.96E-05
    25 OT DIIS     0.80E-01   11.3     0.00001359     -6897.6109887078 -8.46E-05
    26 OT DIIS     0.80E-01   10.9     0.00001355     -6897.6110232899 -3.46E-05
    27 OT SD       0.80E-01   11.1     0.00001222     -6897.6112321511 -2.09E-04
    28 OT DIIS     0.80E-01   10.9     0.00002685     -6897.6112522925 -2.01E-05
    29 OT SD       0.80E-01   10.9     0.00001279     -6897.6115437403 -2.91E-04
    30 OT DIIS     0.80E-01   10.7     0.00003934     -6897.6115233739  2.04E-05
    31 OT DIIS     0.80E-01   10.8     0.00001163     -6897.6117942135 -2.71E-04
    32 OT DIIS     0.80E-01   10.8     0.00001101     -6897.6118928286 -9.86E-05
