 DBCSR| CPU Multiplication driver                                           BLAS (U)
 DBCSR| Multrec recursion limit                                              512 (U)
 DBCSR| Multiplication stack size                                           1000 (D)
 DBCSR| Maximum elements for images                                    UNLIMITED (U)
 DBCSR| Multiplicative factor virtual images                                   1 (U)
 DBCSR| Use multiplication densification                                       T (D)
 DBCSR| Multiplication size stacks                                             3 (U)
 DBCSR| Use memory pool for CPU allocation                                     F (U)
 DBCSR| Number of 3D layers                                               SINGLE (U)
 DBCSR| Use MPI memory allocation                                              F (U)
 DBCSR| Use RMA algorithm                                                      F (U)
 DBCSR| Use Communication thread                                               T (U)
 DBCSR| Communication thread load                                             87 (D)
 DBCSR| MPI: My process id                                                     0
 DBCSR| MPI: Number of processes                                             324
 DBCSR| OMP: Current number of threads                                         1
 DBCSR| OMP: Max number of threads                                             1
 DBCSR| Split modifier for TAS multiplication algorithm                  1.0E+00 (U)


  **** **** ******  **  PROGRAM STARTED AT               2025-11-07 10:44:07.558
 ***** ** ***  *** **   PROGRAM STARTED ON                               cn10271
 **    ****   ******    PROGRAM STARTED BY                                tiansc
 ***** **    ** ** **   PROGRAM PROCESS ID                                233751
  **** **  *******  **  PROGRAM STARTED IN /fs2/home/tiansc/Ov_Ni-FeOx_AIMD/test
                                           /112

 CP2K| version string:                 CP2K version 2025.2 (Development Version)
 CP2K| source code revision number:                                  git:b25f040
 CP2K| cp2kflags: omp libint fftw3 libxc libgrpp elpa parallel scalapack cosma d
 CP2K|            eepmd plumed2 spglib libdftd4 sirius libvori libbqb libtorch l
 CP2K|            libvdwxc hdf5 trexio libsmeagol greenx
 CP2K| is freely available from                            https://www.cp2k.org/
 CP2K| Program compiled at                          Wed Oct 29 13:40:35 CST 2025
 CP2K| Program compiled on                                             th-ex-ln2
 CP2K| Program compiled for                                                local
 CP2K| Data directory path              /fs2/software/cp2k/pkg/cp2k-gcc12.2/data
 CP2K| Input file name                                           HAP_112_opt.inp

 GLOBAL| Force Environment number                                              1
 GLOBAL| Basis set file name                                        BASIS_MOLOPT
 GLOBAL| Potential file name                                      GTH_POTENTIALS
 GLOBAL| MM Potential file name                                     MM_POTENTIAL
 GLOBAL| Coordinate file name                                  HAP_112_clean.xyz
 GLOBAL| Method name                                                        CP2K
 GLOBAL| Project name                                                HAP_112_opt
 GLOBAL| Run type                                                        GEO_OPT
 GLOBAL| FFT library                                                       FFTW3
 GLOBAL| Diagonalization library                                            ELPA
 GLOBAL| Cholesky decomposition library                                ScaLAPACK
 GLOBAL| DGEMM library                                                      BLAS
 GLOBAL| Minimum number of eigenvectors for ELPA usage                        16
 GLOBAL| Orthonormality check for eigenvectors                          DISABLED
 GLOBAL| Matrix multiplication library                                     COSMA
 GLOBAL| All-to-all communication in single precision                          F
 GLOBAL| FFTs using library dependent lengths                                  F
 GLOBAL| Grid backend                                                       AUTO
 GLOBAL| Global print level                                                  LOW
 GLOBAL| MPI I/O enabled                                                       T
 GLOBAL| Total number of message passing processes                           324
 GLOBAL| Number of threads for this process                                    1
 GLOBAL| This output is from process                                           0
 GLOBAL| OpenMP stack size per thread (OMP_STACKSIZE)                    default
 GLOBAL| CPU model name                 Intel(R) Xeon(R) Gold 6348 CPU @ 2.60GHz
 GLOBAL| CPUID                                                              1003

 MEMORY| system memory details [Kb]
 MEMORY|                        rank 0           min           max       average
 MEMORY| MemTotal            263245640     263245640     263245656     263245648
 MEMORY| MemFree             250442644     246122468     250442644     248902808
 MEMORY| Buffers                     0             0             0             0
 MEMORY| Cached                2975776       2807964       4978816       3293014
 MEMORY| Slab                   591240        591192       1274248        957141
 MEMORY| SReclaimable           130268        130268        405300        261518
 MEMORY| MemLikelyFree       253548688     251451584     253548688     252457340


 GENERATE|  Preliminary Number of Bonds generated:                             0
 GENERATE|  Achieved consistency in connectivity generation.

 *******************************************************************************
 *******************************************************************************
 **                                                                           **
 **     #####                         ##              ##                      **
 **    ##   ##            ##          ##              ##                      **
 **   ##     ##                       ##            ######                    **
 **   ##     ##  ##   ##  ##   #####  ##  ##   ####   ##    #####    #####    **
 **   ##     ##  ##   ##  ##  ##      ## ##   ##      ##   ##   ##  ##   ##   **
 **   ##  ## ##  ##   ##  ##  ##      ####     ###    ##   ######   ######    **
 **    ##  ###   ##   ##  ##  ##      ## ##      ##   ##   ##       ##        **
 **     #######   #####   ##   #####  ##  ##  ####    ##    #####   ##        **
 **           ##                                                    ##        **
 **                                                                           **
 **                                                ... make the atoms dance   **
 **                                                                           **
 **            Copyright (C) by CP2K developers group (2000-2025)             **
 **                      J. Chem. Phys. 152, 194103 (2020)                    **
 **                                                                           **
 *******************************************************************************


 TOTAL NUMBERS AND MAXIMUM NUMBERS

  Total number of            - Atomic kinds:                                   5
                             - Atoms:                                        387
                             - Shell sets:                                   387
                             - Shells:                                      2015
                             - Primitive Cartesian functions:               2031
                             - Cartesian basis functions:                   5338
                             - Spherical basis functions:                   4983

  Maximum angular momentum of- Orbital basis functions:                        2
                             - Local part of the GTH pseudopotential:          2
                             - Non-local part of the GTH pseudopotential:      3


 SCF PARAMETERS         Density guess:                                    ATOMIC
                        --------------------------------------------------------
                        max_scf:                                             100
                        max_scf_history:                                       0
                        max_diis:                                              4
                        --------------------------------------------------------
                        eps_scf:                                        1.00E-06
                        eps_scf_history:                                0.00E+00
                        eps_diis:                                       0.00E+00
                        eps_eigval:                                     1.00E-05
                        --------------------------------------------------------
                        level_shift [a.u.]:                             0.000000
                        --------------------------------------------------------
                        Outer loop SCF in use 
                        No variables optimised in outer loop
                        eps_scf                                         1.00E-06
                        max_scf                                               50
                        No outer loop optimization
                        step_size                                       5.00E-01

 *******************************************************************************
 ***                     STARTING GEOMETRY OPTIMIZATION                      ***
 ***                                 L-BFGS                                  ***
 *******************************************************************************

 --------------------------
 OPTIMIZATION STEP:      1
 --------------------------

 Extrapolation method: initial_guess

 Number of electrons:                                                       2432
 Number of occupied orbitals:                                               1216
 Number of molecular orbitals:                                              1216

 Number of orbital functions:                                               4983
 Number of independent orbital functions:                                   4983


 SCF WAVEFUNCTION OPTIMIZATION

  ----------------------------------- OT ---------------------------------------
  Minimizer      : DIIS                : direct inversion
                                         in the iterative subspace
                                         using   7 DIIS vectors
                                         safer DIIS on
  Preconditioner : FULL_SINGLE_INVERSE : inversion of 
                                         H + eS - 2*(Sc)(c^T*H*c+const)(Sc)^T
  Precond_solver : DEFAULT
  stepsize       :    0.08000000                  energy_gap     :    0.08000000
  eps_taylor     :   0.10000E-15                  max_taylor     :             4
  ----------------------------------- OT ---------------------------------------

  Step     Update method      Time    Convergence         Total energy    Change
  ------------------------------------------------------------------------------

 *** WARNING in fm/cp_fm_elpa.F:521 :: Setting real_kernel for ELPA failed ***

     1 OT DIIS     0.80E-01    7.1     0.01644636     -6697.4460528678 -6.70E+03

 *** WARNING in fm/cp_fm_elpa.F:521 :: Setting real_kernel for ELPA failed ***

     2 OT DIIS     0.80E-01    6.3     0.00970307     -6772.4093436954 -7.50E+01

 *** WARNING in fm/cp_fm_elpa.F:521 :: Setting real_kernel for ELPA failed ***

     3 OT DIIS     0.80E-01    6.1     0.00698636     -6804.3214205978 -3.19E+01

 *** WARNING in fm/cp_fm_elpa.F:521 :: Setting real_kernel for ELPA failed ***

     4 OT DIIS     0.80E-01    6.1     0.00557372     -6833.8031227781 -2.95E+01

 *** WARNING in fm/cp_fm_elpa.F:521 :: Setting real_kernel for ELPA failed ***

     5 OT DIIS     0.80E-01    6.2     0.00397580     -6848.5323824810 -1.47E+01

 *** WARNING in fm/cp_fm_elpa.F:521 :: Setting real_kernel for ELPA failed ***

     6 OT DIIS     0.80E-01    5.8     0.00311580     -6860.3626034691 -1.18E+01

 *** WARNING in fm/cp_fm_elpa.F:521 :: Setting real_kernel for ELPA failed ***

     7 OT DIIS     0.80E-01    5.9     0.00248030     -6870.0168102020 -9.65E+00

 *** WARNING in fm/cp_fm_elpa.F:521 :: Setting real_kernel for ELPA failed ***

     8 OT DIIS     0.80E-01    5.7     0.00204378     -6876.3004948378 -6.28E+00

 *** WARNING in fm/cp_fm_elpa.F:521 :: Setting real_kernel for ELPA failed ***

     9 OT DIIS     0.80E-01    5.8     0.00162213     -6880.7414785386 -4.44E+00

 *** WARNING in fm/cp_fm_elpa.F:521 :: Setting real_kernel for ELPA failed ***

    10 OT DIIS     0.80E-01    6.6     0.00124709     -6884.5298190215 -3.79E+00

 *** WARNING in fm/cp_fm_elpa.F:521 :: Setting real_kernel for ELPA failed ***

    11 OT DIIS     0.80E-01    6.0     0.00101448     -6886.7070578943 -2.18E+00

 *** WARNING in fm/cp_fm_elpa.F:521 :: Setting real_kernel for ELPA failed ***

    12 OT DIIS     0.80E-01    6.3     0.00083570     -6888.2304858750 -1.52E+00

 *** WARNING in fm/cp_fm_elpa.F:521 :: Setting real_kernel for ELPA failed ***

    13 OT DIIS     0.80E-01    6.5     0.00071289     -6889.1635244573 -9.33E-01

 *** WARNING in fm/cp_fm_elpa.F:521 :: Setting real_kernel for ELPA failed ***

    14 OT DIIS     0.80E-01    7.0     0.00060341     -6889.9983096830 -8.35E-01

 *** WARNING in fm/cp_fm_elpa.F:521 :: Setting real_kernel for ELPA failed ***

    15 OT DIIS     0.80E-01    5.9     0.00051609     -6890.6158544801 -6.18E-01

 *** WARNING in fm/cp_fm_elpa.F:521 :: Setting real_kernel for ELPA failed ***

    16 OT DIIS     0.80E-01    6.5     0.00045323     -6891.0275902276 -4.12E-01

 *** WARNING in fm/cp_fm_elpa.F:521 :: Setting real_kernel for ELPA failed ***

    17 OT DIIS     0.80E-01    6.0     0.00040108     -6891.3684402672 -3.41E-01

 *** WARNING in fm/cp_fm_elpa.F:521 :: Setting real_kernel for ELPA failed ***

    18 OT DIIS     0.80E-01    6.3     0.00035316     -6891.6468410957 -2.78E-01

 *** WARNING in fm/cp_fm_elpa.F:521 :: Setting real_kernel for ELPA failed ***

    19 OT DIIS     0.80E-01    6.9     0.00031725     -6891.8424356629 -1.96E-01

 *** WARNING in fm/cp_fm_elpa.F:521 :: Setting real_kernel for ELPA failed ***

    20 OT DIIS     0.80E-01    6.6     0.00028085     -6892.0394211434 -1.97E-01

 *** WARNING in fm/cp_fm_elpa.F:521 :: Setting real_kernel for ELPA failed ***


 *** WARNING in fm/cp_fm_elpa.F:521 :: Setting real_kernel for ELPA failed ***

    21 OT DIIS     0.80E-01    5.8     0.00024675     -6892.2235573274 -1.84E-01

 *** WARNING in fm/cp_fm_elpa.F:521 :: Setting real_kernel for ELPA failed ***

    22 OT DIIS     0.80E-01    6.8     0.00022612     -6892.3210304069 -9.75E-02

 *** WARNING in fm/cp_fm_elpa.F:521 :: Setting real_kernel for ELPA failed ***

    23 OT DIIS     0.80E-01    6.0     0.00020495     -6892.4289308217 -1.08E-01

 *** WARNING in fm/cp_fm_elpa.F:521 :: Setting real_kernel for ELPA failed ***

    24 OT DIIS     0.80E-01    6.9     0.00018432     -6892.5269408051 -9.80E-02

 *** WARNING in fm/cp_fm_elpa.F:521 :: Setting real_kernel for ELPA failed ***

    25 OT DIIS     0.80E-01    6.3     0.00017059     -6892.5905372079 -6.36E-02

 *** WARNING in fm/cp_fm_elpa.F:521 :: Setting real_kernel for ELPA failed ***

    26 OT DIIS     0.80E-01    6.7     0.00015852     -6892.6417329987 -5.12E-02

 *** WARNING in fm/cp_fm_elpa.F:521 :: Setting real_kernel for ELPA failed ***

    27 OT DIIS     0.80E-01    7.7     0.00014379     -6892.7064406730 -6.47E-02

 *** WARNING in fm/cp_fm_elpa.F:521 :: Setting real_kernel for ELPA failed ***

    28 OT DIIS     0.80E-01    5.8     0.00013127     -6892.7602781758 -5.38E-02

 *** WARNING in fm/cp_fm_elpa.F:521 :: Setting real_kernel for ELPA failed ***

    29 OT DIIS     0.80E-01    6.4     0.00012342     -6892.7893457616 -2.91E-02

 *** WARNING in fm/cp_fm_elpa.F:521 :: Setting real_kernel for ELPA failed ***

    30 OT DIIS     0.80E-01    6.9     0.00011269     -6892.8357608666 -4.64E-02

 *** WARNING in fm/cp_fm_elpa.F:521 :: Setting real_kernel for ELPA failed ***

    31 OT DIIS     0.80E-01    6.3     0.00010249     -6892.8754698256 -3.97E-02

 *** WARNING in fm/cp_fm_elpa.F:521 :: Setting real_kernel for ELPA failed ***

    32 OT DIIS     0.80E-01    6.7     0.00009645     -6892.8988239065 -2.34E-02

 *** WARNING in fm/cp_fm_elpa.F:521 :: Setting real_kernel for ELPA failed ***

    33 OT DIIS     0.80E-01    7.1     0.00008951     -6892.9256317530 -2.68E-02

 *** WARNING in fm/cp_fm_elpa.F:521 :: Setting real_kernel for ELPA failed ***

    34 OT DIIS     0.80E-01    6.4     0.00008302     -6892.9524437750 -2.68E-02

 *** WARNING in fm/cp_fm_elpa.F:521 :: Setting real_kernel for ELPA failed ***

    35 OT DIIS     0.80E-01    6.2     0.00007813     -6892.9710489800 -1.86E-02

 *** WARNING in fm/cp_fm_elpa.F:521 :: Setting real_kernel for ELPA failed ***

    36 OT DIIS     0.80E-01    6.3     0.00007470     -6892.9841453558 -1.31E-02

 *** WARNING in fm/cp_fm_elpa.F:521 :: Setting real_kernel for ELPA failed ***

    37 OT DIIS     0.80E-01    6.1     0.00007025     -6893.0048450709 -2.07E-02

 *** WARNING in fm/cp_fm_elpa.F:521 :: Setting real_kernel for ELPA failed ***

    38 OT DIIS     0.80E-01    6.5     0.00006602     -6893.0237445450 -1.89E-02

 *** WARNING in fm/cp_fm_elpa.F:521 :: Setting real_kernel for ELPA failed ***

    39 OT DIIS     0.80E-01    6.4     0.00006334     -6893.0349692521 -1.12E-02

 *** WARNING in fm/cp_fm_elpa.F:521 :: Setting real_kernel for ELPA failed ***

    40 OT DIIS     0.80E-01    6.2     0.00006011     -6893.0474736990 -1.25E-02

 *** WARNING in fm/cp_fm_elpa.F:521 :: Setting real_kernel for ELPA failed ***


 *** WARNING in fm/cp_fm_elpa.F:521 :: Setting real_kernel for ELPA failed ***

    41 OT DIIS     0.80E-01    6.6     0.00005646     -6893.0650384667 -1.76E-02

 *** WARNING in fm/cp_fm_elpa.F:521 :: Setting real_kernel for ELPA failed ***

    42 OT DIIS     0.80E-01    6.4     0.00005385     -6893.0748839667 -9.85E-03

 *** WARNING in fm/cp_fm_elpa.F:521 :: Setting real_kernel for ELPA failed ***

    43 OT DIIS     0.80E-01    6.1     0.00005168     -6893.0821688649 -7.28E-03

 *** WARNING in fm/cp_fm_elpa.F:521 :: Setting real_kernel for ELPA failed ***

    44 OT DIIS     0.80E-01    7.3     0.00004810     -6893.0971390552 -1.50E-02

 *** WARNING in fm/cp_fm_elpa.F:521 :: Setting real_kernel for ELPA failed ***

    45 OT DIIS     0.80E-01    7.1     0.00004526     -6893.1082547496 -1.11E-02

 *** WARNING in fm/cp_fm_elpa.F:521 :: Setting real_kernel for ELPA failed ***

    46 OT DIIS     0.80E-01    5.9     0.00004348     -6893.1142197505 -5.97E-03

 *** WARNING in fm/cp_fm_elpa.F:521 :: Setting real_kernel for ELPA failed ***

    47 OT DIIS     0.80E-01    6.5     0.00004015     -6893.1247586408 -1.05E-02

 *** WARNING in fm/cp_fm_elpa.F:521 :: Setting real_kernel for ELPA failed ***

    48 OT DIIS     0.80E-01    6.2     0.00003829     -6893.1312223984 -6.46E-03

 *** WARNING in fm/cp_fm_elpa.F:521 :: Setting real_kernel for ELPA failed ***

    49 OT DIIS     0.80E-01    6.4     0.00003674     -6893.1371933227 -5.97E-03

 *** WARNING in fm/cp_fm_elpa.F:521 :: Setting real_kernel for ELPA failed ***

    50 OT DIIS     0.80E-01    6.1     0.00003545     -6893.1423881023 -5.19E-03

 *** WARNING in fm/cp_fm_elpa.F:521 :: Setting real_kernel for ELPA failed ***

    51 OT DIIS     0.80E-01    6.9     0.00003432     -6893.1474986236 -5.11E-03

 *** WARNING in fm/cp_fm_elpa.F:521 :: Setting real_kernel for ELPA failed ***

    52 OT DIIS     0.80E-01    6.3     0.00003242     -6893.1550597157 -7.56E-03

 *** WARNING in fm/cp_fm_elpa.F:521 :: Setting real_kernel for ELPA failed ***

    53 OT DIIS     0.80E-01    6.4     0.00003155     -6893.1592577378 -4.20E-03

 *** WARNING in fm/cp_fm_elpa.F:521 :: Setting real_kernel for ELPA failed ***

    54 OT DIIS     0.80E-01    6.7     0.00003048     -6893.1631783936 -3.92E-03

 *** WARNING in fm/cp_fm_elpa.F:521 :: Setting real_kernel for ELPA failed ***

    55 OT DIIS     0.80E-01    6.5     0.00002940     -6893.1691540628 -5.98E-03

 *** WARNING in fm/cp_fm_elpa.F:521 :: Setting real_kernel for ELPA failed ***

    56 OT DIIS     0.80E-01    6.8     0.00002830     -6893.1737893126 -4.64E-03

 *** WARNING in fm/cp_fm_elpa.F:521 :: Setting real_kernel for ELPA failed ***

    57 OT DIIS     0.80E-01    6.5     0.00002743     -6893.1774795556 -3.69E-03

 *** WARNING in fm/cp_fm_elpa.F:521 :: Setting real_kernel for ELPA failed ***

    58 OT DIIS     0.80E-01    6.4     0.00002640     -6893.1824666230 -4.99E-03

 *** WARNING in fm/cp_fm_elpa.F:521 :: Setting real_kernel for ELPA failed ***

    59 OT DIIS     0.80E-01    6.6     0.00002564     -6893.1867950132 -4.33E-03

 *** WARNING in fm/cp_fm_elpa.F:521 :: Setting real_kernel for ELPA failed ***

    60 OT DIIS     0.80E-01    6.5     0.00002491     -6893.1896824482 -2.89E-03

 *** WARNING in fm/cp_fm_elpa.F:521 :: Setting real_kernel for ELPA failed ***


 *** WARNING in fm/cp_fm_elpa.F:521 :: Setting real_kernel for ELPA failed ***

    61 OT DIIS     0.80E-01    6.4     0.00002391     -6893.1928098996 -3.13E-03

 *** WARNING in fm/cp_fm_elpa.F:521 :: Setting real_kernel for ELPA failed ***

    62 OT DIIS     0.80E-01    6.0     0.00002304     -6893.1962785747 -3.47E-03

 *** WARNING in fm/cp_fm_elpa.F:521 :: Setting real_kernel for ELPA failed ***

    63 OT DIIS     0.80E-01    6.2     0.00002238     -6893.1990637765 -2.79E-03

 *** WARNING in fm/cp_fm_elpa.F:521 :: Setting real_kernel for ELPA failed ***

    64 OT DIIS     0.80E-01    6.1     0.00002167     -6893.2021254425 -3.06E-03

 *** WARNING in fm/cp_fm_elpa.F:521 :: Setting real_kernel for ELPA failed ***

    65 OT DIIS     0.80E-01    7.5     0.00002109     -6893.2046761467 -2.55E-03

 *** WARNING in fm/cp_fm_elpa.F:521 :: Setting real_kernel for ELPA failed ***

    66 OT DIIS     0.80E-01    7.7     0.00002027     -6893.2079927229 -3.32E-03

 *** WARNING in fm/cp_fm_elpa.F:521 :: Setting real_kernel for ELPA failed ***

    67 OT DIIS     0.80E-01    6.9     0.00001977     -6893.2102597766 -2.27E-03

 *** WARNING in fm/cp_fm_elpa.F:521 :: Setting real_kernel for ELPA failed ***

    68 OT DIIS     0.80E-01    6.0     0.00001934     -6893.2122975516 -2.04E-03

 *** WARNING in fm/cp_fm_elpa.F:521 :: Setting real_kernel for ELPA failed ***

    69 OT DIIS     0.80E-01    6.9     0.00001879     -6893.2148937829 -2.60E-03

 *** WARNING in fm/cp_fm_elpa.F:521 :: Setting real_kernel for ELPA failed ***

    70 OT DIIS     0.80E-01    6.7     0.00001833     -6893.2172415589 -2.35E-03

 *** WARNING in fm/cp_fm_elpa.F:521 :: Setting real_kernel for ELPA failed ***

    71 OT DIIS     0.80E-01    6.7     0.00001783     -6893.2197102885 -2.47E-03

 *** WARNING in fm/cp_fm_elpa.F:521 :: Setting real_kernel for ELPA failed ***

    72 OT DIIS     0.80E-01    6.4     0.00001750     -6893.2219563428 -2.25E-03

 *** WARNING in fm/cp_fm_elpa.F:521 :: Setting real_kernel for ELPA failed ***

    73 OT DIIS     0.80E-01    5.7     0.00001705     -6893.2233440974 -1.39E-03

 *** WARNING in fm/cp_fm_elpa.F:521 :: Setting real_kernel for ELPA failed ***

    74 OT DIIS     0.80E-01    6.2     0.00001670     -6893.2271037637 -3.76E-03

 *** WARNING in fm/cp_fm_elpa.F:521 :: Setting real_kernel for ELPA failed ***

    75 OT DIIS     0.80E-01    6.5     0.00001618     -6893.2282683849 -1.16E-03

 *** WARNING in fm/cp_fm_elpa.F:521 :: Setting real_kernel for ELPA failed ***

    76 OT DIIS     0.80E-01    6.4     0.00001589     -6893.2310640215 -2.80E-03

 *** WARNING in fm/cp_fm_elpa.F:521 :: Setting real_kernel for ELPA failed ***

    77 OT DIIS     0.80E-01    5.6     0.00001499     -6893.2330962878 -2.03E-03

 *** WARNING in fm/cp_fm_elpa.F:521 :: Setting real_kernel for ELPA failed ***

    78 OT DIIS     0.80E-01    7.1     0.00001443     -6893.2349707514 -1.87E-03

 *** WARNING in fm/cp_fm_elpa.F:521 :: Setting real_kernel for ELPA failed ***

    79 OT DIIS     0.80E-01    6.9     0.00001394     -6893.2367553235 -1.78E-03

 *** WARNING in fm/cp_fm_elpa.F:521 :: Setting real_kernel for ELPA failed ***

    80 OT DIIS     0.80E-01    6.6     0.00001348     -6893.2380405709 -1.29E-03

 *** WARNING in fm/cp_fm_elpa.F:521 :: Setting real_kernel for ELPA failed ***


 *** WARNING in fm/cp_fm_elpa.F:521 :: Setting real_kernel for ELPA failed ***

    81 OT DIIS     0.80E-01    6.0     0.00001320     -6893.2390361308 -9.96E-04

 *** WARNING in fm/cp_fm_elpa.F:521 :: Setting real_kernel for ELPA failed ***

    82 OT DIIS     0.80E-01    6.8     0.00001299     -6893.2404552075 -1.42E-03

 *** WARNING in fm/cp_fm_elpa.F:521 :: Setting real_kernel for ELPA failed ***

    83 OT DIIS     0.80E-01    6.0     0.00001282     -6893.2415946351 -1.14E-03

 *** WARNING in fm/cp_fm_elpa.F:521 :: Setting real_kernel for ELPA failed ***

    84 OT DIIS     0.80E-01    7.1     0.00001249     -6893.2423238916 -7.29E-04

 *** WARNING in fm/cp_fm_elpa.F:521 :: Setting real_kernel for ELPA failed ***

    85 OT DIIS     0.80E-01    7.1     0.00001224     -6893.2431815388 -8.58E-04

 *** WARNING in fm/cp_fm_elpa.F:521 :: Setting real_kernel for ELPA failed ***

    86 OT DIIS     0.80E-01    6.9     0.00001167     -6893.2446848513 -1.50E-03

 *** WARNING in fm/cp_fm_elpa.F:521 :: Setting real_kernel for ELPA failed ***

    87 OT DIIS     0.80E-01    6.6     0.00001137     -6893.2456512054 -9.66E-04

 *** WARNING in fm/cp_fm_elpa.F:521 :: Setting real_kernel for ELPA failed ***

    88 OT DIIS     0.80E-01    6.9     0.00001111     -6893.2463223704 -6.71E-04

 *** WARNING in fm/cp_fm_elpa.F:521 :: Setting real_kernel for ELPA failed ***

    89 OT DIIS     0.80E-01    7.0     0.00001083     -6893.2472142087 -8.92E-04

 *** WARNING in fm/cp_fm_elpa.F:521 :: Setting real_kernel for ELPA failed ***

    90 OT DIIS     0.80E-01    7.8     0.00001070     -6893.2481121563 -8.98E-04

 *** WARNING in fm/cp_fm_elpa.F:521 :: Setting real_kernel for ELPA failed ***

    91 OT DIIS     0.80E-01    6.7     0.00001061     -6893.2485348676 -4.23E-04

 *** WARNING in fm/cp_fm_elpa.F:521 :: Setting real_kernel for ELPA failed ***

    92 OT DIIS     0.80E-01    7.0     0.00001040     -6893.2494342207 -8.99E-04

 *** WARNING in fm/cp_fm_elpa.F:521 :: Setting real_kernel for ELPA failed ***

    93 OT DIIS     0.80E-01    6.4     0.00001026     -6893.2505151056 -1.08E-03

 *** WARNING in fm/cp_fm_elpa.F:521 :: Setting real_kernel for ELPA failed ***

    94 OT DIIS     0.80E-01    6.0     0.00000994     -6893.2518640379 -1.35E-03

 *** WARNING in fm/cp_fm_elpa.F:521 :: Setting real_kernel for ELPA failed ***

    95 OT DIIS     0.80E-01    6.4     0.00000976     -6893.2525858590 -7.22E-04

 *** WARNING in fm/cp_fm_elpa.F:521 :: Setting real_kernel for ELPA failed ***

    96 OT DIIS     0.80E-01    6.0     0.00000959     -6893.2534221577 -8.36E-04

 *** WARNING in fm/cp_fm_elpa.F:521 :: Setting real_kernel for ELPA failed ***

    97 OT DIIS     0.80E-01    6.3     0.00000935     -6893.2548064458 -1.38E-03

 *** WARNING in fm/cp_fm_elpa.F:521 :: Setting real_kernel for ELPA failed ***

    98 OT DIIS     0.80E-01    6.8     0.00000903     -6893.2552601903 -4.54E-04

 *** WARNING in fm/cp_fm_elpa.F:521 :: Setting real_kernel for ELPA failed ***

    99 OT DIIS     0.80E-01    5.9     0.00000875     -6893.2561084868 -8.48E-04

 *** WARNING in fm/cp_fm_elpa.F:521 :: Setting real_kernel for ELPA failed ***

   100 OT DIIS     0.80E-01    6.2     0.00000856     -6893.2566249964 -5.17E-04

  Leaving inner SCF loop after reaching   100 steps.


  Electronic density on regular grids:      -2432.0000000480       -0.0000000480
  Core density on regular grids:             2431.9999999988       -0.0000000012
  Total charge density on r-space grids:       -0.0000000491
  Total charge density g-space grids:          -0.0000000491

  Overlap energy of the core charge distribution:               0.02779483963535
  Self energy of the core charge distribution:             -16017.19408509233290
  Core Hamiltonian energy:                                   4330.78057976031050
  Hartree energy:                                            6124.49296582388160
  Exchange-correlation energy:                              -1329.35803232051990
  Dispersion energy:                                           -2.00584800740320

  Total energy:                                             -6893.25662499642749

 *** WARNING in fm/cp_fm_elpa.F:521 :: Setting real_kernel for ELPA failed ***


  outer SCF iter =    1 RMS gradient =   0.86E-05 energy =      -6893.2566249964

  ----------------------------------- OT ---------------------------------------
  Minimizer      : DIIS                : direct inversion
                                         in the iterative subspace
                                         using   7 DIIS vectors
                                         safer DIIS on
  Preconditioner : FULL_SINGLE_INVERSE : inversion of 
                                         H + eS - 2*(Sc)(c^T*H*c+const)(Sc)^T
  Precond_solver : DEFAULT
  stepsize       :    0.08000000                  energy_gap     :    0.08000000
  eps_taylor     :   0.10000E-15                  max_taylor     :             4
  ----------------------------------- OT ---------------------------------------

  Step     Update method      Time    Convergence         Total energy    Change
  ------------------------------------------------------------------------------
     1 OT DIIS     0.80E-01   15.8     0.00010600     -6893.2574413303 -8.16E-04
     2 OT DIIS     0.80E-01    4.5     0.00011898     -6893.2606748563 -3.23E-03
     3 OT DIIS     0.80E-01    4.7     0.00013991     -6893.2614874011 -8.13E-04
     4 OT DIIS     0.80E-01    6.2     0.00011209     -6893.2627540651 -1.27E-03
     5 OT DIIS     0.80E-01    4.9     0.00007957     -6893.2643215595 -1.57E-03
     6 OT DIIS     0.80E-01    5.2     0.00007104     -6893.2651313693 -8.10E-04
     7 OT DIIS     0.80E-01    4.5     0.00005480     -6893.2661306119 -9.99E-04
     8 OT DIIS     0.80E-01    5.0     0.00004999     -6893.2669741108 -8.43E-04
     9 OT DIIS     0.80E-01    5.5     0.00004394     -6893.2677048998 -7.31E-04
    10 OT DIIS     0.80E-01    4.4     0.00004633     -6893.2684064900 -7.02E-04
    11 OT DIIS     0.80E-01    4.5     0.00004065     -6893.2693411386 -9.35E-04
    12 OT DIIS     0.80E-01    6.4     0.00004284     -6893.2701419314 -8.01E-04

 *** WARNING in fm/cp_fm_elpa.F:521 :: Setting real_kernel for ELPA failed ***

    13 OT DIIS     0.80E-01    6.4     0.00004395     -6893.2708756296 -7.34E-04

 *** WARNING in fm/cp_fm_elpa.F:521 :: Setting real_kernel for ELPA failed ***

    14 OT DIIS     0.80E-01    6.2     0.00004321     -6893.2716587673 -7.83E-04

 *** WARNING in fm/cp_fm_elpa.F:521 :: Setting real_kernel for ELPA failed ***

    15 OT DIIS     0.80E-01    6.6     0.00004163     -6893.2721567060 -4.98E-04

 *** WARNING in fm/cp_fm_elpa.F:521 :: Setting real_kernel for ELPA failed ***

    16 OT DIIS     0.80E-01    5.9     0.00003913     -6893.2727212594 -5.65E-04

 *** WARNING in fm/cp_fm_elpa.F:521 :: Setting real_kernel for ELPA failed ***

    17 OT DIIS     0.80E-01    6.7     0.00003848     -6893.2731371338 -4.16E-04

 *** WARNING in fm/cp_fm_elpa.F:521 :: Setting real_kernel for ELPA failed ***

    18 OT DIIS     0.80E-01    5.8     0.00003803     -6893.2738540992 -7.17E-04

 *** WARNING in fm/cp_fm_elpa.F:521 :: Setting real_kernel for ELPA failed ***

    19 OT DIIS     0.80E-01    6.3     0.00003730     -6893.2738029017  5.12E-05

 *** WARNING in fm/cp_fm_elpa.F:521 :: Setting real_kernel for ELPA failed ***

    20 OT DIIS     0.80E-01    5.9     0.00003777     -6893.2740773631 -2.74E-04

 *** WARNING in fm/cp_fm_elpa.F:521 :: Setting real_kernel for ELPA failed ***


 *** WARNING in fm/cp_fm_elpa.F:521 :: Setting real_kernel for ELPA failed ***

    21 OT DIIS     0.80E-01    6.0     0.00003583     -6893.2743715092 -2.94E-04

 *** WARNING in fm/cp_fm_elpa.F:521 :: Setting real_kernel for ELPA failed ***

    22 OT DIIS     0.80E-01    5.8     0.00003443     -6893.2743975130 -2.60E-05

 *** WARNING in fm/cp_fm_elpa.F:521 :: Setting real_kernel for ELPA failed ***

    23 OT DIIS     0.80E-01    6.6     0.00003072     -6893.2745121978 -1.15E-04

 *** WARNING in fm/cp_fm_elpa.F:521 :: Setting real_kernel for ELPA failed ***

    24 OT DIIS     0.80E-01    6.9     0.00002708     -6893.2745928259 -8.06E-05

 *** WARNING in fm/cp_fm_elpa.F:521 :: Setting real_kernel for ELPA failed ***

    25 OT DIIS     0.80E-01    5.6     0.00002490     -6893.2747093728 -1.17E-04

 *** WARNING in fm/cp_fm_elpa.F:521 :: Setting real_kernel for ELPA failed ***

    26 OT DIIS     0.80E-01    6.7     0.00002430     -6893.2748745472 -1.65E-04

 *** WARNING in fm/cp_fm_elpa.F:521 :: Setting real_kernel for ELPA failed ***

    27 OT DIIS     0.80E-01    6.6     0.00002463     -6893.2749296999 -5.52E-05

 *** WARNING in fm/cp_fm_elpa.F:521 :: Setting real_kernel for ELPA failed ***

    28 OT DIIS     0.80E-01    6.6     0.00002444     -6893.2750759900 -1.46E-04

 *** WARNING in fm/cp_fm_elpa.F:521 :: Setting real_kernel for ELPA failed ***

    29 OT DIIS     0.80E-01    5.9     0.00002523     -6893.2752666060 -1.91E-04

 *** WARNING in fm/cp_fm_elpa.F:521 :: Setting real_kernel for ELPA failed ***

    30 OT DIIS     0.80E-01    5.7     0.00002725     -6893.2753492769 -8.27E-05

 *** WARNING in fm/cp_fm_elpa.F:521 :: Setting real_kernel for ELPA failed ***

    31 OT DIIS     0.80E-01    6.3     0.00002676     -6893.2754859766 -1.37E-04

 *** WARNING in fm/cp_fm_elpa.F:521 :: Setting real_kernel for ELPA failed ***

    32 OT DIIS     0.80E-01    6.9     0.00002595     -6893.2755646240 -7.86E-05

 *** WARNING in fm/cp_fm_elpa.F:521 :: Setting real_kernel for ELPA failed ***

    33 OT DIIS     0.80E-01    7.1     0.00002434     -6893.2756871976 -1.23E-04

 *** WARNING in fm/cp_fm_elpa.F:521 :: Setting real_kernel for ELPA failed ***

    34 OT DIIS     0.80E-01    6.8     0.00002332     -6893.2757738452 -8.66E-05

 *** WARNING in fm/cp_fm_elpa.F:521 :: Setting real_kernel for ELPA failed ***

    35 OT DIIS     0.80E-01    6.1     0.00002272     -6893.2758155200 -4.17E-05

 *** WARNING in fm/cp_fm_elpa.F:521 :: Setting real_kernel for ELPA failed ***

    36 OT DIIS     0.80E-01    6.9     0.00002131     -6893.2758820842 -6.66E-05

 *** WARNING in fm/cp_fm_elpa.F:521 :: Setting real_kernel for ELPA failed ***

    37 OT DIIS     0.80E-01    6.4     0.00002064     -6893.2759886064 -1.07E-04

 *** WARNING in fm/cp_fm_elpa.F:521 :: Setting real_kernel for ELPA failed ***

    38 OT DIIS     0.80E-01    6.5     0.00002101     -6893.2760471605 -5.86E-05

 *** WARNING in fm/cp_fm_elpa.F:521 :: Setting real_kernel for ELPA failed ***

    39 OT DIIS     0.80E-01    6.3     0.00002082     -6893.2761400376 -9.29E-05

 *** WARNING in fm/cp_fm_elpa.F:521 :: Setting real_kernel for ELPA failed ***

    40 OT DIIS     0.80E-01    6.0     0.00002099     -6893.2762208570 -8.08E-05

 *** WARNING in fm/cp_fm_elpa.F:521 :: Setting real_kernel for ELPA failed ***


 *** WARNING in fm/cp_fm_elpa.F:521 :: Setting real_kernel for ELPA failed ***

    41 OT DIIS     0.80E-01    6.9     0.00002096     -6893.2763524371 -1.32E-04

 *** WARNING in fm/cp_fm_elpa.F:521 :: Setting real_kernel for ELPA failed ***

    42 OT DIIS     0.80E-01    6.1     0.00002150     -6893.2764250324 -7.26E-05

 *** WARNING in fm/cp_fm_elpa.F:521 :: Setting real_kernel for ELPA failed ***

    43 OT DIIS     0.80E-01    6.9     0.00002213     -6893.2765300653 -1.05E-04

 *** WARNING in fm/cp_fm_elpa.F:521 :: Setting real_kernel for ELPA failed ***

    44 OT DIIS     0.80E-01    6.8     0.00002161     -6893.2765720346 -4.20E-05

 *** WARNING in fm/cp_fm_elpa.F:521 :: Setting real_kernel for ELPA failed ***

    45 OT DIIS     0.80E-01    6.5     0.00002073     -6893.2766513750 -7.93E-05

 *** WARNING in fm/cp_fm_elpa.F:521 :: Setting real_kernel for ELPA failed ***

    46 OT DIIS     0.80E-01    6.3     0.00002042     -6893.2766953343 -4.40E-05

 *** WARNING in fm/cp_fm_elpa.F:521 :: Setting real_kernel for ELPA failed ***

    47 OT DIIS     0.80E-01    5.7     0.00001929     -6893.2767501502 -5.48E-05

 *** WARNING in fm/cp_fm_elpa.F:521 :: Setting real_kernel for ELPA failed ***

    48 OT DIIS     0.80E-01    6.7     0.00001849     -6893.2767949958 -4.48E-05

 *** WARNING in fm/cp_fm_elpa.F:521 :: Setting real_kernel for ELPA failed ***

    49 OT DIIS     0.80E-01    6.6     0.00001792     -6893.2768787583 -8.38E-05

 *** WARNING in fm/cp_fm_elpa.F:521 :: Setting real_kernel for ELPA failed ***

    50 OT DIIS     0.80E-01    6.2     0.00001796     -6893.2769224793 -4.37E-05

 *** WARNING in fm/cp_fm_elpa.F:521 :: Setting real_kernel for ELPA failed ***

    51 OT DIIS     0.80E-01    7.3     0.00001839     -6893.2770289805 -1.07E-04

 *** WARNING in fm/cp_fm_elpa.F:521 :: Setting real_kernel for ELPA failed ***

    52 OT DIIS     0.80E-01    5.9     0.00001895     -6893.2770863481 -5.74E-05

 *** WARNING in fm/cp_fm_elpa.F:521 :: Setting real_kernel for ELPA failed ***

    53 OT DIIS     0.80E-01    6.1     0.00001918     -6893.2771625989 -7.63E-05

 *** WARNING in fm/cp_fm_elpa.F:521 :: Setting real_kernel for ELPA failed ***

    54 OT DIIS     0.80E-01    6.9     0.00001980     -6893.2772346342 -7.20E-05

 *** WARNING in fm/cp_fm_elpa.F:521 :: Setting real_kernel for ELPA failed ***

    55 OT DIIS     0.80E-01    5.9     0.00001947     -6893.2772854044 -5.08E-05

 *** WARNING in fm/cp_fm_elpa.F:521 :: Setting real_kernel for ELPA failed ***

    56 OT DIIS     0.80E-01    5.9     0.00001877     -6893.2773235711 -3.82E-05

 *** WARNING in fm/cp_fm_elpa.F:521 :: Setting real_kernel for ELPA failed ***

    57 OT DIIS     0.80E-01    6.0     0.00001771     -6893.2773931799 -6.96E-05

 *** WARNING in fm/cp_fm_elpa.F:521 :: Setting real_kernel for ELPA failed ***

    58 OT DIIS     0.80E-01    6.0     0.00001703     -6893.2773986152 -5.44E-06

 *** WARNING in fm/cp_fm_elpa.F:521 :: Setting real_kernel for ELPA failed ***

    59 OT DIIS     0.80E-01    6.7     0.00001655     -6893.2774803653 -8.18E-05

 *** WARNING in fm/cp_fm_elpa.F:521 :: Setting real_kernel for ELPA failed ***

    60 OT DIIS     0.80E-01    6.1     0.00001652     -6893.2775190841 -3.87E-05

 *** WARNING in fm/cp_fm_elpa.F:521 :: Setting real_kernel for ELPA failed ***


 *** WARNING in fm/cp_fm_elpa.F:521 :: Setting real_kernel for ELPA failed ***

    61 OT DIIS     0.80E-01    6.8     0.00001641     -6893.2775687603 -4.97E-05

 *** WARNING in fm/cp_fm_elpa.F:521 :: Setting real_kernel for ELPA failed ***

    62 OT DIIS     0.80E-01    7.7     0.00001683     -6893.2776401144 -7.14E-05

 *** WARNING in fm/cp_fm_elpa.F:521 :: Setting real_kernel for ELPA failed ***

    63 OT DIIS     0.80E-01    6.3     0.00001719     -6893.2776980647 -5.80E-05

 *** WARNING in fm/cp_fm_elpa.F:521 :: Setting real_kernel for ELPA failed ***

    64 OT DIIS     0.80E-01    7.1     0.00001747     -6893.2777567201 -5.87E-05

 *** WARNING in fm/cp_fm_elpa.F:521 :: Setting real_kernel for ELPA failed ***

    65 OT DIIS     0.80E-01    6.2     0.00001723     -6893.2778332311 -7.65E-05

 *** WARNING in fm/cp_fm_elpa.F:521 :: Setting real_kernel for ELPA failed ***

    66 OT DIIS     0.80E-01    5.6     0.00001718     -6893.2778275995  5.63E-06

 *** WARNING in fm/cp_fm_elpa.F:521 :: Setting real_kernel for ELPA failed ***

    67 OT DIIS     0.80E-01    6.0     0.00001659     -6893.2779149032 -8.73E-05

 *** WARNING in fm/cp_fm_elpa.F:521 :: Setting real_kernel for ELPA failed ***

    68 OT DIIS     0.80E-01    6.1     0.00001639     -6893.2779432729 -2.84E-05

 *** WARNING in fm/cp_fm_elpa.F:521 :: Setting real_kernel for ELPA failed ***

    69 OT DIIS     0.80E-01    6.7     0.00001571     -6893.2779638623 -2.06E-05

 *** WARNING in fm/cp_fm_elpa.F:521 :: Setting real_kernel for ELPA failed ***

    70 OT DIIS     0.80E-01    6.4     0.00001536     -6893.2780162923 -5.24E-05

 *** WARNING in fm/cp_fm_elpa.F:521 :: Setting real_kernel for ELPA failed ***

    71 OT DIIS     0.80E-01    6.0     0.00001515     -6893.2780559797 -3.97E-05

 *** WARNING in fm/cp_fm_elpa.F:521 :: Setting real_kernel for ELPA failed ***

    72 OT DIIS     0.80E-01    7.2     0.00001518     -6893.2781040720 -4.81E-05

 *** WARNING in fm/cp_fm_elpa.F:521 :: Setting real_kernel for ELPA failed ***

    73 OT DIIS     0.80E-01    6.0     0.00001521     -6893.2781693563 -6.53E-05

 *** WARNING in fm/cp_fm_elpa.F:521 :: Setting real_kernel for ELPA failed ***

    74 OT DIIS     0.80E-01    6.3     0.00001564     -6893.2781861238 -1.68E-05

 *** WARNING in fm/cp_fm_elpa.F:521 :: Setting real_kernel for ELPA failed ***

    75 OT DIIS     0.80E-01    6.2     0.00001558     -6893.2782746363 -8.85E-05

 *** WARNING in fm/cp_fm_elpa.F:521 :: Setting real_kernel for ELPA failed ***

    76 OT DIIS     0.80E-01    6.6     0.00001606     -6893.2783224543 -4.78E-05

 *** WARNING in fm/cp_fm_elpa.F:521 :: Setting real_kernel for ELPA failed ***

    77 OT DIIS     0.80E-01    6.2     0.00001589     -6893.2783303936 -7.94E-06

 *** WARNING in fm/cp_fm_elpa.F:521 :: Setting real_kernel for ELPA failed ***

    78 OT DIIS     0.80E-01    5.8     0.00001550     -6893.2783800305 -4.96E-05

 *** WARNING in fm/cp_fm_elpa.F:521 :: Setting real_kernel for ELPA failed ***

    79 OT DIIS     0.80E-01    6.1     0.00001497     -6893.2784074140 -2.74E-05

 *** WARNING in fm/cp_fm_elpa.F:521 :: Setting real_kernel for ELPA failed ***

    80 OT DIIS     0.80E-01    7.7     0.00001452     -6893.2784431105 -3.57E-05

 *** WARNING in fm/cp_fm_elpa.F:521 :: Setting real_kernel for ELPA failed ***


 *** WARNING in fm/cp_fm_elpa.F:521 :: Setting real_kernel for ELPA failed ***

    81 OT DIIS     0.80E-01    6.6     0.00001409     -6893.2784874082 -4.43E-05

 *** WARNING in fm/cp_fm_elpa.F:521 :: Setting real_kernel for ELPA failed ***

    82 OT DIIS     0.80E-01    6.5     0.00001406     -6893.2785008433 -1.34E-05

 *** WARNING in fm/cp_fm_elpa.F:521 :: Setting real_kernel for ELPA failed ***

    83 OT DIIS     0.80E-01    6.5     0.00001384     -6893.2785629719 -6.21E-05

 *** WARNING in fm/cp_fm_elpa.F:521 :: Setting real_kernel for ELPA failed ***

    84 OT DIIS     0.80E-01    6.2     0.00001429     -6893.2786182416 -5.53E-05

 *** WARNING in fm/cp_fm_elpa.F:521 :: Setting real_kernel for ELPA failed ***

    85 OT DIIS     0.80E-01    5.9     0.00001467     -6893.2786387790 -2.05E-05

 *** WARNING in fm/cp_fm_elpa.F:521 :: Setting real_kernel for ELPA failed ***

    86 OT DIIS     0.80E-01    6.5     0.00001481     -6893.2786947875 -5.60E-05

 *** WARNING in fm/cp_fm_elpa.F:521 :: Setting real_kernel for ELPA failed ***

    87 OT DIIS     0.80E-01    6.9     0.00001482     -6893.2787286800 -3.39E-05

 *** WARNING in fm/cp_fm_elpa.F:521 :: Setting real_kernel for ELPA failed ***

    88 OT DIIS     0.80E-01    7.1     0.00001465     -6893.2787671708 -3.85E-05

 *** WARNING in fm/cp_fm_elpa.F:521 :: Setting real_kernel for ELPA failed ***

    89 OT DIIS     0.80E-01    6.1     0.00001410     -6893.2788002875 -3.31E-05

 *** WARNING in fm/cp_fm_elpa.F:521 :: Setting real_kernel for ELPA failed ***

    90 OT DIIS     0.80E-01    6.0     0.00001388     -6893.2788051141 -4.83E-06

 *** WARNING in fm/cp_fm_elpa.F:521 :: Setting real_kernel for ELPA failed ***

    91 OT DIIS     0.80E-01    6.8     0.00001321     -6893.2788476444 -4.25E-05

 *** WARNING in fm/cp_fm_elpa.F:521 :: Setting real_kernel for ELPA failed ***

    92 OT DIIS     0.80E-01    5.9     0.00001317     -6893.2788915690 -4.39E-05

 *** WARNING in fm/cp_fm_elpa.F:521 :: Setting real_kernel for ELPA failed ***

    93 OT DIIS     0.80E-01    6.4     0.00001323     -6893.2789082956 -1.67E-05

 *** WARNING in fm/cp_fm_elpa.F:521 :: Setting real_kernel for ELPA failed ***

    94 OT DIIS     0.80E-01    6.7     0.00001323     -6893.2789530707 -4.48E-05

 *** WARNING in fm/cp_fm_elpa.F:521 :: Setting real_kernel for ELPA failed ***

    95 OT DIIS     0.80E-01    6.6     0.00001342     -6893.2789912855 -3.82E-05

 *** WARNING in fm/cp_fm_elpa.F:521 :: Setting real_kernel for ELPA failed ***

    96 OT DIIS     0.80E-01    6.1     0.00001366     -6893.2790381502 -4.69E-05

 *** WARNING in fm/cp_fm_elpa.F:521 :: Setting real_kernel for ELPA failed ***

    97 OT DIIS     0.80E-01    6.3     0.00001363     -6893.2790739419 -3.58E-05

 *** WARNING in fm/cp_fm_elpa.F:521 :: Setting real_kernel for ELPA failed ***

    98 OT DIIS     0.80E-01    6.2     0.00001391     -6893.2790934511 -1.95E-05

 *** WARNING in fm/cp_fm_elpa.F:521 :: Setting real_kernel for ELPA failed ***

    99 OT DIIS     0.80E-01    6.1     0.00001331     -6893.2791240614 -3.06E-05

 *** WARNING in fm/cp_fm_elpa.F:521 :: Setting real_kernel for ELPA failed ***

   100 OT DIIS     0.80E-01    6.4     0.00001311     -6893.2791669069 -4.28E-05

  Leaving inner SCF loop after reaching   100 steps.


  Electronic density on regular grids:      -2432.0000000479       -0.0000000479
  Core density on regular grids:             2431.9999999988       -0.0000000012
  Total charge density on r-space grids:       -0.0000000491
  Total charge density g-space grids:          -0.0000000491

  Overlap energy of the core charge distribution:               0.02779483963535
  Self energy of the core charge distribution:             -16017.19408509233290
  Core Hamiltonian energy:                                   4330.68297955406342
  Hartree energy:                                            6124.54206152011375
  Exchange-correlation energy:                              -1329.33206972100834
  Dispersion energy:                                           -2.00584800740320

  Total energy:                                             -6893.27916690693110

 *** WARNING in fm/cp_fm_elpa.F:521 :: Setting real_kernel for ELPA failed ***


  outer SCF iter =    2 RMS gradient =   0.13E-04 energy =      -6893.2791669069

  ----------------------------------- OT ---------------------------------------
  Minimizer      : DIIS                : direct inversion
                                         in the iterative subspace
                                         using   7 DIIS vectors
                                         safer DIIS on
  Preconditioner : FULL_SINGLE_INVERSE : inversion of 
                                         H + eS - 2*(Sc)(c^T*H*c+const)(Sc)^T
  Precond_solver : DEFAULT
  stepsize       :    0.08000000                  energy_gap     :    0.08000000
  eps_taylor     :   0.10000E-15                  max_taylor     :             4
  ----------------------------------- OT ---------------------------------------

  Step     Update method      Time    Convergence         Total energy    Change
  ------------------------------------------------------------------------------
     1 OT DIIS     0.80E-01   16.2     0.00001310     -6893.2791736779 -6.77E-06
     2 OT DIIS     0.80E-01    3.6     0.00003596     -6893.2792014038 -2.77E-05
     3 OT DIIS     0.80E-01    4.2     0.00001205     -6893.2792505852 -4.92E-05
     4 OT DIIS     0.80E-01    3.9     0.00001169     -6893.2792703018 -1.97E-05
     5 OT DIIS     0.80E-01    4.5     0.00001761     -6893.2797405410 -4.70E-04
     6 OT DIIS     0.80E-01    5.7     0.00003542     -6893.2809044225 -1.16E-03
     7 OT SD       0.80E-01    4.3     0.00003675     -6893.2809064661 -2.04E-06
     8 OT SD       0.80E-01    4.2     0.00008665     -6893.2806320649  2.74E-04
     9 OT DIIS     0.80E-01    5.1     0.00036301     -6893.2755908036  5.04E-03
    10 OT DIIS     0.80E-01    5.6     0.00002017     -6893.2802702409 -4.68E-03
    11 OT DIIS     0.80E-01    4.4     0.00002098     -6893.2806111972 -3.41E-04
    12 OT DIIS     0.80E-01    5.3     0.00002018     -6893.2806965570 -8.54E-05
    13 OT SD       0.80E-01    5.2     0.00001409     -6893.2810683495 -3.72E-04
    14 OT DIIS     0.80E-01    4.4     0.00005231     -6893.2810062419  6.21E-05
    15 OT DIIS     0.80E-01    4.8     0.00001378     -6893.2812152364 -2.09E-04
    16 OT SD       0.80E-01    5.0     0.00000882     -6893.2812606475 -4.54E-05
    17 OT DIIS     0.80E-01    5.1     0.00001841     -6893.2812819027 -2.13E-05
    18 OT DIIS     0.80E-01    5.2     0.00000897     -6893.2813208152 -3.89E-05
    19 OT DIIS     0.80E-01    4.8     0.00000934     -6893.2813976647 -7.68E-05
    20 OT SD       0.80E-01    4.6     0.00000913     -6893.2814060873 -8.42E-06

 *** WARNING in fm/cp_fm_elpa.F:521 :: Setting real_kernel for ELPA failed ***

    21 OT DIIS     0.80E-01    4.3     0.00002240     -6893.2814175472 -1.15E-05

 *** WARNING in fm/cp_fm_elpa.F:521 :: Setting real_kernel for ELPA failed ***

    22 OT DIIS     0.80E-01    6.0     0.00001065     -6893.2815627169 -1.45E-04

 *** WARNING in fm/cp_fm_elpa.F:521 :: Setting real_kernel for ELPA failed ***

    23 OT SD       0.80E-01    6.3     0.00001542     -6893.2820059572 -4.43E-04

 *** WARNING in fm/cp_fm_elpa.F:521 :: Setting real_kernel for ELPA failed ***

    24 OT SD       0.80E-01    6.4     0.00003592     -6893.2819748463  3.11E-05

 *** WARNING in fm/cp_fm_elpa.F:521 :: Setting real_kernel for ELPA failed ***

    25 OT DIIS     0.80E-01    6.6     0.00015624     -6893.2810828341  8.92E-04

 *** WARNING in fm/cp_fm_elpa.F:521 :: Setting real_kernel for ELPA failed ***

    26 OT DIIS     0.80E-01    6.2     0.00000843     -6893.2821328294 -1.05E-03

 *** WARNING in fm/cp_fm_elpa.F:521 :: Setting real_kernel for ELPA failed ***

    27 OT SD       0.80E-01    6.7     0.00001449     -6893.2823805250 -2.48E-04

 *** WARNING in fm/cp_fm_elpa.F:521 :: Setting real_kernel for ELPA failed ***

    28 OT DIIS     0.80E-01    6.9     0.00003954     -6893.2823378217  4.27E-05

 *** WARNING in fm/cp_fm_elpa.F:521 :: Setting real_kernel for ELPA failed ***

    29 OT DIIS     0.80E-01    7.4     0.00000829     -6893.2824426556 -1.05E-04

 *** WARNING in fm/cp_fm_elpa.F:521 :: Setting real_kernel for ELPA failed ***

    30 OT SD       0.80E-01    6.7     0.00000997     -6893.2826118021 -1.69E-04

 *** WARNING in fm/cp_fm_elpa.F:521 :: Setting real_kernel for ELPA failed ***

    31 OT DIIS     0.80E-01    6.2     0.00003068     -6893.2825948886  1.69E-05

 *** WARNING in fm/cp_fm_elpa.F:521 :: Setting real_kernel for ELPA failed ***

    32 OT DIIS     0.80E-01    6.1     0.00000867     -6893.2827160663 -1.21E-04

 *** WARNING in fm/cp_fm_elpa.F:521 :: Setting real_kernel for ELPA failed ***

    33 OT DIIS     0.80E-01    6.5     0.00000655     -6893.2827371385 -2.11E-05

 *** WARNING in fm/cp_fm_elpa.F:521 :: Setting real_kernel for ELPA failed ***

    34 OT SD       0.80E-01    6.9     0.00000730     -6893.2828077765 -7.06E-05

 *** WARNING in fm/cp_fm_elpa.F:521 :: Setting real_kernel for ELPA failed ***

    35 OT DIIS     0.80E-01    6.4     0.00001722     -6893.2828127954 -5.02E-06

 *** WARNING in fm/cp_fm_elpa.F:521 :: Setting real_kernel for ELPA failed ***

    36 OT DIIS     0.80E-01    6.0     0.00000795     -6893.2829567363 -1.44E-04

 *** WARNING in fm/cp_fm_elpa.F:521 :: Setting real_kernel for ELPA failed ***

    37 OT SD       0.80E-01    6.6     0.00000799     -6893.2830393750 -8.26E-05

 *** WARNING in fm/cp_fm_elpa.F:521 :: Setting real_kernel for ELPA failed ***

    38 OT SD       0.80E-01    6.7     0.00001615     -6893.2830437216 -4.35E-06

 *** WARNING in fm/cp_fm_elpa.F:521 :: Setting real_kernel for ELPA failed ***

    39 OT DIIS     0.80E-01    6.2     0.00006645     -6893.2828898694  1.54E-04

 *** WARNING in fm/cp_fm_elpa.F:521 :: Setting real_kernel for ELPA failed ***

    40 OT DIIS     0.80E-01    6.3     0.00000617     -6893.2830860649 -1.96E-04

 *** WARNING in fm/cp_fm_elpa.F:521 :: Setting real_kernel for ELPA failed ***


 *** WARNING in fm/cp_fm_elpa.F:521 :: Setting real_kernel for ELPA failed ***

    41 OT SD       0.80E-01    6.7     0.00000633     -6893.2831327211 -4.67E-05

 *** WARNING in fm/cp_fm_elpa.F:521 :: Setting real_kernel for ELPA failed ***

    42 OT DIIS     0.80E-01    6.7     0.00001808     -6893.2831358119 -3.09E-06

 *** WARNING in fm/cp_fm_elpa.F:521 :: Setting real_kernel for ELPA failed ***

    43 OT DIIS     0.80E-01    6.6     0.00000564     -6893.2831987973 -6.30E-05

 *** WARNING in fm/cp_fm_elpa.F:521 :: Setting real_kernel for ELPA failed ***

    44 OT SD       0.80E-01    6.7     0.00000650     -6893.2833156981 -1.17E-04

 *** WARNING in fm/cp_fm_elpa.F:521 :: Setting real_kernel for ELPA failed ***

    45 OT SD       0.80E-01    6.5     0.00001473     -6893.2833201835 -4.49E-06

 *** WARNING in fm/cp_fm_elpa.F:521 :: Setting real_kernel for ELPA failed ***

    46 OT DIIS     0.80E-01    6.7     0.00006737     -6893.2831638682  1.56E-04

 *** WARNING in fm/cp_fm_elpa.F:521 :: Setting real_kernel for ELPA failed ***

    47 OT SD       0.80E-01    6.3     0.00000663     -6893.2834667089 -3.03E-04

 *** WARNING in fm/cp_fm_elpa.F:521 :: Setting real_kernel for ELPA failed ***

    48 OT DIIS     0.80E-01    6.3     0.00001626     -6893.2834688631 -2.15E-06

 *** WARNING in fm/cp_fm_elpa.F:521 :: Setting real_kernel for ELPA failed ***

    49 OT DIIS     0.80E-01    6.6     0.00000577     -6893.2834747019 -5.84E-06

 *** WARNING in fm/cp_fm_elpa.F:521 :: Setting real_kernel for ELPA failed ***

    50 OT DIIS     0.80E-01    6.6     0.00000551     -6893.2835530675 -7.84E-05

 *** WARNING in fm/cp_fm_elpa.F:521 :: Setting real_kernel for ELPA failed ***

    51 OT SD       0.80E-01    6.9     0.00000610     -6893.2836072220 -5.42E-05

 *** WARNING in fm/cp_fm_elpa.F:521 :: Setting real_kernel for ELPA failed ***

    52 OT DIIS     0.80E-01    5.8     0.00001327     -6893.2836118570 -4.64E-06

 *** WARNING in fm/cp_fm_elpa.F:521 :: Setting real_kernel for ELPA failed ***

    53 OT DIIS     0.80E-01    6.2     0.00000594     -6893.2837170366 -1.05E-04

 *** WARNING in fm/cp_fm_elpa.F:521 :: Setting real_kernel for ELPA failed ***

    54 OT SD       0.80E-01    7.0     0.00000669     -6893.2837738660 -5.68E-05

 *** WARNING in fm/cp_fm_elpa.F:521 :: Setting real_kernel for ELPA failed ***

    55 OT DIIS     0.80E-01    6.5     0.00001726     -6893.2837730468  8.19E-07

 *** WARNING in fm/cp_fm_elpa.F:521 :: Setting real_kernel for ELPA failed ***

    56 OT DIIS     0.80E-01    6.8     0.00000749     -6893.2837670687  5.98E-06

 *** WARNING in fm/cp_fm_elpa.F:521 :: Setting real_kernel for ELPA failed ***

    57 OT DIIS     0.80E-01    6.4     0.00000675     -6893.2838890105 -1.22E-04

 *** WARNING in fm/cp_fm_elpa.F:521 :: Setting real_kernel for ELPA failed ***

    58 OT SD       0.80E-01    6.6     0.00000697     -6893.2839260967 -3.71E-05

 *** WARNING in fm/cp_fm_elpa.F:521 :: Setting real_kernel for ELPA failed ***

    59 OT DIIS     0.80E-01    7.8     0.00002043     -6893.2839205600  5.54E-06

 *** WARNING in fm/cp_fm_elpa.F:521 :: Setting real_kernel for ELPA failed ***

    60 OT DIIS     0.80E-01    6.4     0.00000604     -6893.2839493765 -2.88E-05

 *** WARNING in fm/cp_fm_elpa.F:521 :: Setting real_kernel for ELPA failed ***


 *** WARNING in fm/cp_fm_elpa.F:521 :: Setting real_kernel for ELPA failed ***

    61 OT SD       0.80E-01    6.1     0.00000514     -6893.2840081812 -5.88E-05

 *** WARNING in fm/cp_fm_elpa.F:521 :: Setting real_kernel for ELPA failed ***

    62 OT DIIS     0.80E-01    6.9     0.00001260     -6893.2840120554 -3.87E-06

 *** WARNING in fm/cp_fm_elpa.F:521 :: Setting real_kernel for ELPA failed ***

    63 OT DIIS     0.80E-01    6.3     0.00000528     -6893.2840929466 -8.09E-05

 *** WARNING in fm/cp_fm_elpa.F:521 :: Setting real_kernel for ELPA failed ***

    64 OT DIIS     0.80E-01    7.1     0.00000539     -6893.2841504499 -5.75E-05

 *** WARNING in fm/cp_fm_elpa.F:521 :: Setting real_kernel for ELPA failed ***

    65 OT SD       0.80E-01    6.1     0.00000977     -6893.2842657681 -1.15E-04

 *** WARNING in fm/cp_fm_elpa.F:521 :: Setting real_kernel for ELPA failed ***

    66 OT SD       0.80E-01    6.7     0.00002430     -6893.2842487850  1.70E-05

 *** WARNING in fm/cp_fm_elpa.F:521 :: Setting real_kernel for ELPA failed ***

    67 OT DIIS     0.80E-01    7.1     0.00010523     -6893.2838342430  4.15E-04

 *** WARNING in fm/cp_fm_elpa.F:521 :: Setting real_kernel for ELPA failed ***

    68 OT DIIS     0.80E-01    6.3     0.00000519     -6893.2841934766 -3.59E-04

 *** WARNING in fm/cp_fm_elpa.F:521 :: Setting real_kernel for ELPA failed ***

    69 OT DIIS     0.80E-01    7.6     0.00000432     -6893.2842271084 -3.36E-05

 *** WARNING in fm/cp_fm_elpa.F:521 :: Setting real_kernel for ELPA failed ***

    70 OT SD       0.80E-01    6.9     0.00000428     -6893.2842656358 -3.85E-05

 *** WARNING in fm/cp_fm_elpa.F:521 :: Setting real_kernel for ELPA failed ***

    71 OT DIIS     0.80E-01    7.1     0.00000925     -6893.2842704527 -4.82E-06

 *** WARNING in fm/cp_fm_elpa.F:521 :: Setting real_kernel for ELPA failed ***

    72 OT DIIS     0.80E-01    6.9     0.00000419     -6893.2842749898 -4.54E-06

 *** WARNING in fm/cp_fm_elpa.F:521 :: Setting real_kernel for ELPA failed ***

    73 OT DIIS     0.80E-01    6.5     0.00000395     -6893.2842896763 -1.47E-05

 *** WARNING in fm/cp_fm_elpa.F:521 :: Setting real_kernel for ELPA failed ***

    74 OT DIIS     0.80E-01    6.1     0.00000418     -6893.2843084542 -1.88E-05

 *** WARNING in fm/cp_fm_elpa.F:521 :: Setting real_kernel for ELPA failed ***

    75 OT DIIS     0.80E-01    7.0     0.00000483     -6893.2843573514 -4.89E-05

 *** WARNING in fm/cp_fm_elpa.F:521 :: Setting real_kernel for ELPA failed ***

    76 OT DIIS     0.80E-01    6.1     0.00000575     -6893.2844404047 -8.31E-05

 *** WARNING in fm/cp_fm_elpa.F:521 :: Setting real_kernel for ELPA failed ***

    77 OT SD       0.80E-01    6.6     0.00000699     -6893.2845204338 -8.00E-05

 *** WARNING in fm/cp_fm_elpa.F:521 :: Setting real_kernel for ELPA failed ***

    78 OT SD       0.80E-01    5.7     0.00001507     -6893.2845168802  3.55E-06

 *** WARNING in fm/cp_fm_elpa.F:521 :: Setting real_kernel for ELPA failed ***

    79 OT DIIS     0.80E-01    7.0     0.00005828     -6893.2843849255  1.32E-04

 *** WARNING in fm/cp_fm_elpa.F:521 :: Setting real_kernel for ELPA failed ***

    80 OT DIIS     0.80E-01    6.6     0.00000430     -6893.2845184341 -1.34E-04

 *** WARNING in fm/cp_fm_elpa.F:521 :: Setting real_kernel for ELPA failed ***


 *** WARNING in fm/cp_fm_elpa.F:521 :: Setting real_kernel for ELPA failed ***

    81 OT SD       0.80E-01    6.6     0.00000467     -6893.2845838144 -6.54E-05

 *** WARNING in fm/cp_fm_elpa.F:521 :: Setting real_kernel for ELPA failed ***

    82 OT DIIS     0.80E-01    7.2     0.00001090     -6893.2845846797 -8.65E-07

 *** WARNING in fm/cp_fm_elpa.F:521 :: Setting real_kernel for ELPA failed ***

    83 OT DIIS     0.80E-01    6.4     0.00000395     -6893.2845919923 -7.31E-06

 *** WARNING in fm/cp_fm_elpa.F:521 :: Setting real_kernel for ELPA failed ***

    84 OT SD       0.80E-01    6.5     0.00000421     -6893.2846598681 -6.79E-05

 *** WARNING in fm/cp_fm_elpa.F:521 :: Setting real_kernel for ELPA failed ***

    85 OT DIIS     0.80E-01    7.3     0.00001233     -6893.2846597082  1.60E-07

 *** WARNING in fm/cp_fm_elpa.F:521 :: Setting real_kernel for ELPA failed ***

    86 OT DIIS     0.80E-01    6.4     0.00000418     -6893.2847013015 -4.16E-05

 *** WARNING in fm/cp_fm_elpa.F:521 :: Setting real_kernel for ELPA failed ***

    87 OT DIIS     0.80E-01    6.4     0.00000484     -6893.2847789593 -7.77E-05

 *** WARNING in fm/cp_fm_elpa.F:521 :: Setting real_kernel for ELPA failed ***

    88 OT SD       0.80E-01    6.1     0.00000612     -6893.2848027222 -2.38E-05

 *** WARNING in fm/cp_fm_elpa.F:521 :: Setting real_kernel for ELPA failed ***

    89 OT SD       0.80E-01    6.3     0.00001738     -6893.2847952903  7.43E-06

 *** WARNING in fm/cp_fm_elpa.F:521 :: Setting real_kernel for ELPA failed ***

    90 OT DIIS     0.80E-01    6.2     0.00008274     -6893.2845473370  2.48E-04

 *** WARNING in fm/cp_fm_elpa.F:521 :: Setting real_kernel for ELPA failed ***

    91 OT DIIS     0.80E-01    7.2     0.00000361     -6893.2847763850 -2.29E-04

 *** WARNING in fm/cp_fm_elpa.F:521 :: Setting real_kernel for ELPA failed ***

    92 OT DIIS     0.80E-01    6.4     0.00000322     -6893.2847894084 -1.30E-05

 *** WARNING in fm/cp_fm_elpa.F:521 :: Setting real_kernel for ELPA failed ***

    93 OT DIIS     0.80E-01    6.5     0.00000316     -6893.2847938089 -4.40E-06

 *** WARNING in fm/cp_fm_elpa.F:521 :: Setting real_kernel for ELPA failed ***

    94 OT SD       0.80E-01    6.4     0.00000314     -6893.2847950604 -1.25E-06

 *** WARNING in fm/cp_fm_elpa.F:521 :: Setting real_kernel for ELPA failed ***

    95 OT DIIS     0.80E-01    6.4     0.00000582     -6893.2847986441 -3.58E-06

 *** WARNING in fm/cp_fm_elpa.F:521 :: Setting real_kernel for ELPA failed ***

    96 OT DIIS     0.80E-01    6.6     0.00000309     -6893.2848070510 -8.41E-06

 *** WARNING in fm/cp_fm_elpa.F:521 :: Setting real_kernel for ELPA failed ***

    97 OT DIIS     0.80E-01    6.5     0.00000313     -6893.2848119836 -4.93E-06

 *** WARNING in fm/cp_fm_elpa.F:521 :: Setting real_kernel for ELPA failed ***

    98 OT DIIS     0.80E-01    6.7     0.00000337     -6893.2848312224 -1.92E-05

 *** WARNING in fm/cp_fm_elpa.F:521 :: Setting real_kernel for ELPA failed ***

    99 OT DIIS     0.80E-01    6.9     0.00000304     -6893.2848477003 -1.65E-05

 *** WARNING in fm/cp_fm_elpa.F:521 :: Setting real_kernel for ELPA failed ***

   100 OT DIIS     0.80E-01    6.4     0.00000348     -6893.2848564602 -8.76E-06

  Leaving inner SCF loop after reaching   100 steps.


  Electronic density on regular grids:      -2432.0000000480       -0.0000000480
  Core density on regular grids:             2431.9999999988       -0.0000000012
  Total charge density on r-space grids:       -0.0000000492
  Total charge density g-space grids:          -0.0000000492

  Overlap energy of the core charge distribution:               0.02779483963535
  Self energy of the core charge distribution:             -16017.19408509233290
  Core Hamiltonian energy:                                   4330.65100052056187
  Hartree energy:                                            6124.56057551062077
  Exchange-correlation energy:                              -1329.32429423126473
  Dispersion energy:                                           -2.00584800740320

  Total energy:                                             -6893.28485646018180

 *** WARNING in fm/cp_fm_elpa.F:521 :: Setting real_kernel for ELPA failed ***


  outer SCF iter =    3 RMS gradient =   0.35E-05 energy =      -6893.2848564602

  ----------------------------------- OT ---------------------------------------
  Minimizer      : DIIS                : direct inversion
                                         in the iterative subspace
                                         using   7 DIIS vectors
                                         safer DIIS on
  Preconditioner : FULL_SINGLE_INVERSE : inversion of 
                                         H + eS - 2*(Sc)(c^T*H*c+const)(Sc)^T
  Precond_solver : DEFAULT
  stepsize       :    0.08000000                  energy_gap     :    0.08000000
  eps_taylor     :   0.10000E-15                  max_taylor     :             4
  ----------------------------------- OT ---------------------------------------

  Step     Update method      Time    Convergence         Total energy    Change
  ------------------------------------------------------------------------------
     1 OT DIIS     0.80E-01   17.4     0.00000306     -6893.2848785271 -2.21E-05
     2 OT DIIS     0.80E-01    4.6     0.00000420     -6893.2848824943 -3.97E-06
     3 OT DIIS     0.80E-01    4.5     0.00000310     -6893.2848835668 -1.07E-06
     4 OT DIIS     0.80E-01    4.9     0.00000298     -6893.2848850920 -1.53E-06
     5 OT DIIS     0.80E-01    3.9     0.00000300     -6893.2848900858 -4.99E-06
     6 OT DIIS     0.80E-01    3.8     0.00000302     -6893.2849004256 -1.03E-05
     7 OT DIIS     0.80E-01    4.4     0.00000304     -6893.2849164387 -1.60E-05
     8 OT DIIS     0.80E-01    5.3     0.00000292     -6893.2849280121 -1.16E-05
     9 OT DIIS     0.80E-01    4.7     0.00000299     -6893.2849390300 -1.10E-05
    10 OT DIIS     0.80E-01    5.0     0.00000292     -6893.2849527083 -1.37E-05
    11 OT DIIS     0.80E-01    4.5     0.00000294     -6893.2849646269 -1.19E-05
    12 OT DIIS     0.80E-01    4.0     0.00000296     -6893.2849979306 -3.33E-05
    13 OT DIIS     0.80E-01    4.6     0.00000292     -6893.2850314304 -3.35E-05
    14 OT DIIS     0.80E-01    4.8     0.00000275     -6893.2850453602 -1.39E-05
    15 OT DIIS     0.80E-01    4.6     0.00000283     -6893.2850603075 -1.49E-05
    16 OT DIIS     0.80E-01    4.5     0.00000381     -6893.2851067783 -4.65E-05
    17 OT DIIS     0.80E-01    5.0     0.00000558     -6893.2851738152 -6.70E-05
    18 OT DIIS     0.80E-01    4.8     0.00000559     -6893.2851862770 -1.25E-05
    19 OT SD       0.80E-01    5.1     0.00000546     -6893.2852158145 -2.95E-05
    20 OT SD       0.80E-01    4.3     0.00001526     -6893.2852086356  7.18E-06

 *** WARNING in fm/cp_fm_elpa.F:521 :: Setting real_kernel for ELPA failed ***

    21 OT DIIS     0.80E-01    4.1     0.00006945     -6893.2850312038  1.77E-04
    22 OT DIIS     0.80E-01    5.0     0.00000327     -6893.2851859799 -1.55E-04
    23 OT DIIS     0.80E-01    4.6     0.00000318     -6893.2852243558 -3.84E-05
    24 OT SD       0.80E-01    5.0     0.00000271     -6893.2852414896 -1.71E-05
    25 OT DIIS     0.80E-01    5.2     0.00000791     -6893.2852418035 -3.14E-07
    26 OT SD       0.80E-01    4.5     0.00000285     -6893.2852614903 -1.97E-05
    27 OT DIIS     0.80E-01    5.7     0.00001007     -6893.2852603058  1.18E-06
    28 OT DIIS     0.80E-01    4.6     0.00000242     -6893.2852703598 -1.01E-05
    29 OT DIIS     0.80E-01    5.3     0.00000269     -6893.2852789919 -8.63E-06
    30 OT DIIS     0.80E-01    5.6     0.00000234     -6893.2852855363 -6.54E-06
    31 OT SD       0.80E-01    5.1     0.00000241     -6893.2853109791 -2.54E-05
    32 OT DIIS     0.80E-01    5.2     0.00000599     -6893.2853117790 -8.00E-07
    33 OT DIIS     0.80E-01    5.6     0.00000254     -6893.2853114046  3.74E-07

 *** WARNING in fm/cp_fm_elpa.F:521 :: Setting real_kernel for ELPA failed ***

    34 OT DIIS     0.80E-01    7.1     0.00000223     -6893.2853337647 -2.24E-05

 *** WARNING in fm/cp_fm_elpa.F:521 :: Setting real_kernel for ELPA failed ***

    35 OT DIIS     0.80E-01    7.2     0.00000240     -6893.2853614622 -2.77E-05

 *** WARNING in fm/cp_fm_elpa.F:521 :: Setting real_kernel for ELPA failed ***

    36 OT DIIS     0.80E-01    6.8     0.00000271     -6893.2853843337 -2.29E-05

 *** WARNING in fm/cp_fm_elpa.F:521 :: Setting real_kernel for ELPA failed ***

    37 OT SD       0.80E-01    6.4     0.00000284     -6893.2853848917 -5.58E-07

 *** WARNING in fm/cp_fm_elpa.F:521 :: Setting real_kernel for ELPA failed ***

    38 OT DIIS     0.80E-01    5.9     0.00001149     -6893.2853820523  2.84E-06

 *** WARNING in fm/cp_fm_elpa.F:521 :: Setting real_kernel for ELPA failed ***

    39 OT DIIS     0.80E-01    5.8     0.00000211     -6893.2853881059 -6.05E-06

 *** WARNING in fm/cp_fm_elpa.F:521 :: Setting real_kernel for ELPA failed ***

    40 OT SD       0.80E-01    6.8     0.00000278     -6893.2854263872 -3.83E-05

 *** WARNING in fm/cp_fm_elpa.F:521 :: Setting real_kernel for ELPA failed ***


 *** WARNING in fm/cp_fm_elpa.F:521 :: Setting real_kernel for ELPA failed ***

    41 OT DIIS     0.80E-01    6.2     0.00000846     -6893.2854253051  1.08E-06

 *** WARNING in fm/cp_fm_elpa.F:521 :: Setting real_kernel for ELPA failed ***

    42 OT SD       0.80E-01    6.8     0.00000247     -6893.2854257796 -4.75E-07

 *** WARNING in fm/cp_fm_elpa.F:521 :: Setting real_kernel for ELPA failed ***

    43 OT DIIS     0.80E-01    6.7     0.00000991     -6893.2854239956  1.78E-06

 *** WARNING in fm/cp_fm_elpa.F:521 :: Setting real_kernel for ELPA failed ***

    44 OT SD       0.80E-01    6.2     0.00000258     -6893.2854716222 -4.76E-05

 *** WARNING in fm/cp_fm_elpa.F:521 :: Setting real_kernel for ELPA failed ***

    45 OT DIIS     0.80E-01    6.9     0.00000659     -6893.2854713855  2.37E-07

 *** WARNING in fm/cp_fm_elpa.F:521 :: Setting real_kernel for ELPA failed ***

    46 OT DIIS     0.80E-01    6.8     0.00000187     -6893.2854704415  9.44E-07

 *** WARNING in fm/cp_fm_elpa.F:521 :: Setting real_kernel for ELPA failed ***

    47 OT SD       0.80E-01    6.7     0.00000185     -6893.2854817141 -1.13E-05

 *** WARNING in fm/cp_fm_elpa.F:521 :: Setting real_kernel for ELPA failed ***

    48 OT DIIS     0.80E-01    7.7     0.00000453     -6893.2854824356 -7.22E-07

 *** WARNING in fm/cp_fm_elpa.F:521 :: Setting real_kernel for ELPA failed ***

    49 OT SD       0.80E-01    6.8     0.00000194     -6893.2855063475 -2.39E-05

 *** WARNING in fm/cp_fm_elpa.F:521 :: Setting real_kernel for ELPA failed ***

    50 OT DIIS     0.80E-01    6.2     0.00000438     -6893.2855070098 -6.62E-07

 *** WARNING in fm/cp_fm_elpa.F:521 :: Setting real_kernel for ELPA failed ***

    51 OT SD       0.80E-01    6.6     0.00000188     -6893.2855322258 -2.52E-05

 *** WARNING in fm/cp_fm_elpa.F:521 :: Setting real_kernel for ELPA failed ***

    52 OT DIIS     0.80E-01    6.5     0.00000417     -6893.2855328443 -6.18E-07

 *** WARNING in fm/cp_fm_elpa.F:521 :: Setting real_kernel for ELPA failed ***

    53 OT DIIS     0.80E-01    7.1     0.00000193     -6893.2855390775 -6.23E-06

 *** WARNING in fm/cp_fm_elpa.F:521 :: Setting real_kernel for ELPA failed ***

    54 OT DIIS     0.80E-01    6.5     0.00000188     -6893.2855580050 -1.89E-05

 *** WARNING in fm/cp_fm_elpa.F:521 :: Setting real_kernel for ELPA failed ***

    55 OT DIIS     0.80E-01    7.3     0.00000219     -6893.2855750972 -1.71E-05

 *** WARNING in fm/cp_fm_elpa.F:521 :: Setting real_kernel for ELPA failed ***

    56 OT SD       0.80E-01    6.8     0.00000225     -6893.2855772456 -2.15E-06

 *** WARNING in fm/cp_fm_elpa.F:521 :: Setting real_kernel for ELPA failed ***

    57 OT SD       0.80E-01    6.5     0.00000529     -6893.2855772826 -3.71E-08

 *** WARNING in fm/cp_fm_elpa.F:521 :: Setting real_kernel for ELPA failed ***

    58 OT DIIS     0.80E-01    7.2     0.00002362     -6893.2855574428  1.98E-05

 *** WARNING in fm/cp_fm_elpa.F:521 :: Setting real_kernel for ELPA failed ***

    59 OT SD       0.80E-01    6.4     0.00000160     -6893.2855735705 -1.61E-05

 *** WARNING in fm/cp_fm_elpa.F:521 :: Setting real_kernel for ELPA failed ***

    60 OT DIIS     0.80E-01    6.1     0.00000351     -6893.2855742783 -7.08E-07

 *** WARNING in fm/cp_fm_elpa.F:521 :: Setting real_kernel for ELPA failed ***


 *** WARNING in fm/cp_fm_elpa.F:521 :: Setting real_kernel for ELPA failed ***

    61 OT SD       0.80E-01    6.4     0.00000155     -6893.2855753369 -1.06E-06

 *** WARNING in fm/cp_fm_elpa.F:521 :: Setting real_kernel for ELPA failed ***

    62 OT DIIS     0.80E-01    6.6     0.00000295     -6893.2855761471 -8.10E-07

 *** WARNING in fm/cp_fm_elpa.F:521 :: Setting real_kernel for ELPA failed ***

    63 OT DIIS     0.80E-01    6.9     0.00000155     -6893.2855758968  2.50E-07

 *** WARNING in fm/cp_fm_elpa.F:521 :: Setting real_kernel for ELPA failed ***

    64 OT DIIS     0.80E-01    6.1     0.00000152     -6893.2855789946 -3.10E-06

 *** WARNING in fm/cp_fm_elpa.F:521 :: Setting real_kernel for ELPA failed ***

    65 OT DIIS     0.80E-01    5.9     0.00000158     -6893.2855828732 -3.88E-06

 *** WARNING in fm/cp_fm_elpa.F:521 :: Setting real_kernel for ELPA failed ***

    66 OT SD       0.80E-01    7.1     0.00000150     -6893.2855851746 -2.30E-06

 *** WARNING in fm/cp_fm_elpa.F:521 :: Setting real_kernel for ELPA failed ***

    67 OT DIIS     0.80E-01    7.0     0.00000333     -6893.2855858088 -6.34E-07

 *** WARNING in fm/cp_fm_elpa.F:521 :: Setting real_kernel for ELPA failed ***

    68 OT DIIS     0.80E-01    6.3     0.00000142     -6893.2855888327 -3.02E-06

 *** WARNING in fm/cp_fm_elpa.F:521 :: Setting real_kernel for ELPA failed ***

    69 OT DIIS     0.80E-01    5.7     0.00000142     -6893.2855902613 -1.43E-06

 *** WARNING in fm/cp_fm_elpa.F:521 :: Setting real_kernel for ELPA failed ***

    70 OT DIIS     0.80E-01    7.1     0.00000140     -6893.2855938154 -3.55E-06

 *** WARNING in fm/cp_fm_elpa.F:521 :: Setting real_kernel for ELPA failed ***

    71 OT DIIS     0.80E-01    7.6     0.00000149     -6893.2855982511 -4.44E-06

 *** WARNING in fm/cp_fm_elpa.F:521 :: Setting real_kernel for ELPA failed ***

    72 OT DIIS     0.80E-01    6.7     0.00000140     -6893.2856043604 -6.11E-06

 *** WARNING in fm/cp_fm_elpa.F:521 :: Setting real_kernel for ELPA failed ***

    73 OT DIIS     0.80E-01    6.8     0.00000136     -6893.2856076255 -3.27E-06

 *** WARNING in fm/cp_fm_elpa.F:521 :: Setting real_kernel for ELPA failed ***

    74 OT DIIS     0.80E-01    6.0     0.00000137     -6893.2856124665 -4.84E-06

 *** WARNING in fm/cp_fm_elpa.F:521 :: Setting real_kernel for ELPA failed ***

    75 OT DIIS     0.80E-01    7.5     0.00000137     -6893.2856165823 -4.12E-06

 *** WARNING in fm/cp_fm_elpa.F:521 :: Setting real_kernel for ELPA failed ***

    76 OT DIIS     0.80E-01    6.4     0.00000139     -6893.2856205959 -4.01E-06

 *** WARNING in fm/cp_fm_elpa.F:521 :: Setting real_kernel for ELPA failed ***

    77 OT DIIS     0.80E-01    7.7     0.00000134     -6893.2856278392 -7.24E-06

 *** WARNING in fm/cp_fm_elpa.F:521 :: Setting real_kernel for ELPA failed ***

    78 OT DIIS     0.80E-01    6.7     0.00000132     -6893.2856319012 -4.06E-06

 *** WARNING in fm/cp_fm_elpa.F:521 :: Setting real_kernel for ELPA failed ***

    79 OT DIIS     0.80E-01    6.1     0.00000131     -6893.2856342569 -2.36E-06

 *** WARNING in fm/cp_fm_elpa.F:521 :: Setting real_kernel for ELPA failed ***

    80 OT DIIS     0.80E-01    6.4     0.00000135     -6893.2856375079 -3.25E-06

 *** WARNING in fm/cp_fm_elpa.F:521 :: Setting real_kernel for ELPA failed ***


 *** WARNING in fm/cp_fm_elpa.F:521 :: Setting real_kernel for ELPA failed ***

    81 OT DIIS     0.80E-01    6.8     0.00000131     -6893.2856410041 -3.50E-06

 *** WARNING in fm/cp_fm_elpa.F:521 :: Setting real_kernel for ELPA failed ***

    82 OT DIIS     0.80E-01    6.2     0.00000134     -6893.2856462638 -5.26E-06

 *** WARNING in fm/cp_fm_elpa.F:521 :: Setting real_kernel for ELPA failed ***

    83 OT DIIS     0.80E-01    7.0     0.00000130     -6893.2856500856 -3.82E-06

 *** WARNING in fm/cp_fm_elpa.F:521 :: Setting real_kernel for ELPA failed ***

    84 OT DIIS     0.80E-01    6.8     0.00000129     -6893.2856569915 -6.91E-06

 *** WARNING in fm/cp_fm_elpa.F:521 :: Setting real_kernel for ELPA failed ***

    85 OT SD       0.80E-01    6.7     0.00000129     -6893.2856579717 -9.80E-07

 *** WARNING in fm/cp_fm_elpa.F:521 :: Setting real_kernel for ELPA failed ***

    86 OT DIIS     0.80E-01    7.3     0.00000216     -6893.2856586138 -6.42E-07

 *** WARNING in fm/cp_fm_elpa.F:521 :: Setting real_kernel for ELPA failed ***

    87 OT DIIS     0.80E-01    7.0     0.00000128     -6893.2856632557 -4.64E-06

 *** WARNING in fm/cp_fm_elpa.F:521 :: Setting real_kernel for ELPA failed ***

    88 OT DIIS     0.80E-01    6.5     0.00000130     -6893.2856678912 -4.64E-06

 *** WARNING in fm/cp_fm_elpa.F:521 :: Setting real_kernel for ELPA failed ***

    89 OT DIIS     0.80E-01    7.0     0.00000134     -6893.2856779706 -1.01E-05

 *** WARNING in fm/cp_fm_elpa.F:521 :: Setting real_kernel for ELPA failed ***

    90 OT SD       0.80E-01    6.5     0.00000143     -6893.2856811712 -3.20E-06

 *** WARNING in fm/cp_fm_elpa.F:521 :: Setting real_kernel for ELPA failed ***

    91 OT DIIS     0.80E-01    6.4     0.00000426     -6893.2856812919 -1.21E-07

 *** WARNING in fm/cp_fm_elpa.F:521 :: Setting real_kernel for ELPA failed ***

    92 OT DIIS     0.80E-01    6.8     0.00000136     -6893.2856886001 -7.31E-06

 *** WARNING in fm/cp_fm_elpa.F:521 :: Setting real_kernel for ELPA failed ***

    93 OT DIIS     0.80E-01    7.8     0.00000136     -6893.2856939155 -5.32E-06

 *** WARNING in fm/cp_fm_elpa.F:521 :: Setting real_kernel for ELPA failed ***

    94 OT SD       0.80E-01    6.3     0.00000171     -6893.2857080399 -1.41E-05

 *** WARNING in fm/cp_fm_elpa.F:521 :: Setting real_kernel for ELPA failed ***

    95 OT SD       0.80E-01    6.3     0.00000537     -6893.2857076724  3.67E-07

 *** WARNING in fm/cp_fm_elpa.F:521 :: Setting real_kernel for ELPA failed ***

    96 OT DIIS     0.80E-01    6.7     0.00002914     -6893.2856791113  2.86E-05

 *** WARNING in fm/cp_fm_elpa.F:521 :: Setting real_kernel for ELPA failed ***

    97 OT SD       0.80E-01    6.3     0.00000136     -6893.2857158473 -3.67E-05

 *** WARNING in fm/cp_fm_elpa.F:521 :: Setting real_kernel for ELPA failed ***

    98 OT DIIS     0.80E-01    6.7     0.00000350     -6893.2857160582 -2.11E-07

 *** WARNING in fm/cp_fm_elpa.F:521 :: Setting real_kernel for ELPA failed ***

    99 OT DIIS     0.80E-01    6.9     0.00000124     -6893.2857204653 -4.41E-06

 *** WARNING in fm/cp_fm_elpa.F:521 :: Setting real_kernel for ELPA failed ***

   100 OT SD       0.80E-01    7.5     0.00000168     -6893.2857379789 -1.75E-05

  Leaving inner SCF loop after reaching   100 steps.


  Electronic density on regular grids:      -2432.0000000480       -0.0000000480
  Core density on regular grids:             2431.9999999988       -0.0000000012
  Total charge density on r-space grids:       -0.0000000491
  Total charge density g-space grids:          -0.0000000491

  Overlap energy of the core charge distribution:               0.02779483963535
  Self energy of the core charge distribution:             -16017.19408509233290
  Core Hamiltonian energy:                                   4330.64478252835761
  Hartree energy:                                            6124.56461085959927
  Exchange-correlation energy:                              -1329.32299310678991
  Dispersion energy:                                           -2.00584800740320

  Total energy:                                             -6893.28573797893296

 *** WARNING in fm/cp_fm_elpa.F:521 :: Setting real_kernel for ELPA failed ***


  outer SCF iter =    4 RMS gradient =   0.17E-05 energy =      -6893.2857379789

  ----------------------------------- OT ---------------------------------------
  Minimizer      : DIIS                : direct inversion
                                         in the iterative subspace
                                         using   7 DIIS vectors
                                         safer DIIS on
  Preconditioner : FULL_SINGLE_INVERSE : inversion of 
                                         H + eS - 2*(Sc)(c^T*H*c+const)(Sc)^T
  Precond_solver : DEFAULT
  stepsize       :    0.08000000                  energy_gap     :    0.08000000
  eps_taylor     :   0.10000E-15                  max_taylor     :             4
  ----------------------------------- OT ---------------------------------------

  Step     Update method      Time    Convergence         Total energy    Change
[...]

 *** WARNING in fm/cp_fm_elpa.F:521 :: Setting real_kernel for ELPA failed ***

    97 OT SD       0.80E-01    6.2     0.00000216     -6919.4778904655 -1.72E-05

 *** WARNING in fm/cp_fm_elpa.F:521 :: Setting real_kernel for ELPA failed ***

    98 OT SD       0.80E-01    6.1     0.00000426     -6919.4778908370 -3.72E-07

 *** WARNING in fm/cp_fm_elpa.F:521 :: Setting real_kernel for ELPA failed ***

    99 OT DIIS     0.80E-01    6.2     0.00001684     -6919.4778805199  1.03E-05

 *** WARNING in fm/cp_fm_elpa.F:521 :: Setting real_kernel for ELPA failed ***

   100 OT DIIS     0.80E-01    5.9     0.00000148     -6919.4778852102 -4.69E-06

  Leaving inner SCF loop after reaching   100 steps.


  Electronic density on regular grids:      -2431.9999999170        0.0000000830
  Core density on regular grids:             2431.9999999988       -0.0000000012
  Total charge density on r-space grids:        0.0000000819
  Total charge density g-space grids:           0.0000000819

  Overlap energy of the core charge distribution:               0.00000810374358
  Self energy of the core charge distribution:             -16017.19408509233290
  Core Hamiltonian energy:                                   4270.65664911838303
  Hartree energy:                                            6149.99765060033587
  Exchange-correlation energy:                              -1320.93454107801904
  Dispersion energy:                                           -2.00356686229808

  Total energy:                                             -6919.47788521018811

 *** WARNING in fm/cp_fm_elpa.F:521 :: Setting real_kernel for ELPA failed ***


  outer SCF iter =    2 RMS gradient =   0.15E-05 energy =      -6919.4778852102

  ----------------------------------- OT ---------------------------------------
  Minimizer      : DIIS                : direct inversion
                                         in the iterative subspace
                                         using   7 DIIS vectors
                                         safer DIIS on
  Preconditioner : FULL_SINGLE_INVERSE : inversion of 
                                         H + eS - 2*(Sc)(c^T*H*c+const)(Sc)^T
  Precond_solver : DEFAULT
  stepsize       :    0.08000000                  energy_gap     :    0.08000000
  eps_taylor     :   0.10000E-15                  max_taylor     :             4
  ----------------------------------- OT ---------------------------------------

  Step     Update method      Time    Convergence         Total energy    Change
  ------------------------------------------------------------------------------
     1 OT DIIS     0.80E-01   14.7     0.00000151     -6919.4778875867 -2.38E-06
     2 OT DIIS     0.80E-01    3.5     0.00000247     -6919.4778884511 -8.64E-07
     3 OT DIIS     0.80E-01    3.7     0.00000146     -6919.4778887850 -3.34E-07
     4 OT DIIS     0.80E-01    3.5     0.00000145     -6919.4778892250 -4.40E-07
     5 OT DIIS     0.80E-01    3.8     0.00000153     -6919.4778910002 -1.78E-06
     6 OT DIIS     0.80E-01    4.3     0.00000143     -6919.4778984535 -7.45E-06
     7 OT DIIS     0.80E-01    4.9     0.00000140     -6919.4779005014 -2.05E-06
     8 OT DIIS     0.80E-01    4.4     0.00000141     -6919.4779024780 -1.98E-06
     9 OT DIIS     0.80E-01    4.0     0.00000138     -6919.4779052141 -2.74E-06
    10 OT DIIS     0.80E-01    4.2     0.00000141     -6919.4779083336 -3.12E-06
    11 OT DIIS     0.80E-01    4.6     0.00000143     -6919.4779144130 -6.08E-06
    12 OT DIIS     0.80E-01    4.1     0.00000141     -6919.4779191689 -4.76E-06
    13 OT DIIS     0.80E-01    4.6     0.00000137     -6919.4779226821 -3.51E-06
    14 OT DIIS     0.80E-01    4.4     0.00000135     -6919.4779246500 -1.97E-06
    15 OT DIIS     0.80E-01    4.8     0.00000140     -6919.4779346582 -1.00E-05
    16 OT DIIS     0.80E-01    4.2     0.00000146     -6919.4779404580 -5.80E-06
    17 OT DIIS     0.80E-01    4.6     0.00000147     -6919.4779512218 -1.08E-05
    18 OT DIIS     0.80E-01    4.5     0.00000149     -6919.4779567783 -5.56E-06
    19 OT DIIS     0.80E-01    3.9     0.00000134     -6919.4779577230 -9.45E-07
    20 OT DIIS     0.80E-01    4.7     0.00000134     -6919.4779626102 -4.89E-06

 *** WARNING in fm/cp_fm_elpa.F:521 :: Setting real_kernel for ELPA failed ***

    21 OT DIIS     0.80E-01    4.3     0.00000138     -6919.4779648750 -2.26E-06
    22 OT SD       0.80E-01    4.3     0.00000154     -6919.4779760844 -1.12E-05
    23 OT SD       0.80E-01    4.3     0.00000356     -6919.4779763382 -2.54E-07
    24 OT DIIS     0.80E-01    4.1     0.00001638     -6919.4779667529  9.59E-06
    25 OT DIIS     0.80E-01    4.3     0.00000124     -6919.4779770199 -1.03E-05
    26 OT SD       0.80E-01    3.8     0.00000151     -6919.4779803839 -3.36E-06
    27 OT DIIS     0.80E-01    5.3     0.00000515     -6919.4779800411  3.43E-07
    28 OT SD       0.80E-01    4.1     0.00000142     -6919.4779924261 -1.24E-05
    29 OT DIIS     0.80E-01    4.5     0.00000424     -6919.4779922861  1.40E-07
    30 OT DIIS     0.80E-01    4.4     0.00000117     -6919.4779986012 -6.32E-06
    31 OT SD       0.80E-01    4.4     0.00000130     -6919.4780107286 -1.21E-05
    32 OT SD       0.80E-01    5.1     0.00000212     -6919.4780110682 -3.40E-07
    33 OT DIIS     0.80E-01    4.0     0.00000725     -6919.4780092894  1.78E-06
    34 OT DIIS     0.80E-01    4.2     0.00000120     -6919.4780159702 -6.68E-06
    35 OT SD       0.80E-01    4.3     0.00000168     -6919.4780250176 -9.05E-06
    36 OT DIIS     0.80E-01    4.3     0.00000484     -6919.4780246112  4.06E-07
    37 OT DIIS     0.80E-01    4.5     0.00000106     -6919.4780308230 -6.21E-06
    38 OT SD       0.80E-01    4.0     0.00000126     -6919.4780355720 -4.75E-06

 *** WARNING in fm/cp_fm_elpa.F:521 :: Setting real_kernel for ELPA failed ***

    39 OT DIIS     0.80E-01    6.3     0.00000257     -6919.4780357376 -1.66E-07

 *** WARNING in fm/cp_fm_elpa.F:521 :: Setting real_kernel for ELPA failed ***

    40 OT DIIS     0.80E-01    6.2     0.00000149     -6919.4780468785 -1.11E-05

 *** WARNING in fm/cp_fm_elpa.F:521 :: Setting real_kernel for ELPA failed ***


 *** WARNING in fm/cp_fm_elpa.F:521 :: Setting real_kernel for ELPA failed ***

    41 OT DIIS     0.80E-01    6.3     0.00000128     -6919.4780476449 -7.66E-07

 *** WARNING in fm/cp_fm_elpa.F:521 :: Setting real_kernel for ELPA failed ***

    42 OT DIIS     0.80E-01    6.9     0.00000170     -6919.4780476910 -4.61E-08

 *** WARNING in fm/cp_fm_elpa.F:521 :: Setting real_kernel for ELPA failed ***

    43 OT SD       0.80E-01    6.0     0.00000105     -6919.4780525400 -4.85E-06

 *** WARNING in fm/cp_fm_elpa.F:521 :: Setting real_kernel for ELPA failed ***

    44 OT DIIS     0.80E-01    5.9     0.00000328     -6919.4780523736  1.66E-07

 *** WARNING in fm/cp_fm_elpa.F:521 :: Setting real_kernel for ELPA failed ***

    45 OT DIIS     0.80E-01    6.1     0.00000090     -6919.4780521295  2.44E-07

  *** SCF run converged in    45 steps ***


  Electronic density on regular grids:      -2431.9999999170        0.0000000830
  Core density on regular grids:             2431.9999999988       -0.0000000012
  Total charge density on r-space grids:        0.0000000819
  Total charge density g-space grids:           0.0000000819

  Overlap energy of the core charge distribution:               0.00000810374358
  Self energy of the core charge distribution:             -16017.19408509233290
  Core Hamiltonian energy:                                   4270.65246351822680
  Hartree energy:                                            6149.99978937988999
  Exchange-correlation energy:                              -1320.93266117670669
  Dispersion energy:                                           -2.00356686229808

  Total energy:                                             -6919.47805212947696

 *** WARNING in fm/cp_fm_elpa.F:521 :: Setting real_kernel for ELPA failed ***


  outer SCF iter =    3 RMS gradient =   0.90E-06 energy =      -6919.4780521295
  outer SCF loop converged in   3 iterations or  245 steps


 ENERGY| Total FORCE_EVAL ( QS ) energy [hartree]          -6919.478054458953920

 OPT| **************************************************************************
 OPT| Step number                                                             10
 OPT| Optimization method                                                  LBFGS
 OPT| Total energy [hartree]                                    -6919.4780544590
 OPT| Effective energy change [hartree]                            -0.3950175669
 OPT| Decrease in energy                                                     YES
 OPT| Used time [s]                                                     3474.091
 OPT|
 OPT| Maximum step size                                             0.1900477891
 OPT| Convergence limit for maximum step size                       0.0030000000
 OPT| Maximum step size is converged                                          NO
 OPT|
 OPT| RMS step size                                                 0.0349117152
 OPT| Convergence limit for RMS step size                           0.0015000000
 OPT| RMS step size is converged                                              NO
 OPT|
 OPT| Maximum gradient                                              0.1944507201
 OPT| Convergence limit for maximum gradient                        0.0010000000
 OPT| Maximum gradient is converged                                           NO
 OPT|
 OPT| RMS gradient                                                  0.0198717751
 OPT| Convergence limit for RMS gradient                            0.0005000000
 OPT| RMS gradient is converged                                               NO
 OPT| **************************************************************************
 OPT| Estimated peak process memory after this step [MiB]                    421

 --------------------------
 OPTIMIZATION STEP:     11
 --------------------------

 Extrapolation method: ASPC

 Number of electrons:                                                       2432
 Number of occupied orbitals:                                               1216
 Number of molecular orbitals:                                              1216

 Number of orbital functions:                                               4983
 Number of independent orbital functions:                                   4983


 SCF WAVEFUNCTION OPTIMIZATION

  ----------------------------------- OT ---------------------------------------
  Minimizer      : DIIS                : direct inversion
                                         in the iterative subspace
                                         using   7 DIIS vectors
                                         safer DIIS on
  Preconditioner : FULL_SINGLE_INVERSE : inversion of 
                                         H + eS - 2*(Sc)(c^T*H*c+const)(Sc)^T
  Precond_solver : DEFAULT
  stepsize       :    0.08000000                  energy_gap     :    0.08000000
  eps_taylor     :   0.10000E-15                  max_taylor     :             4
  ----------------------------------- OT ---------------------------------------

  Step     Update method      Time    Convergence         Total energy    Change
  ------------------------------------------------------------------------------

 *** WARNING in fm/cp_fm_elpa.F:521 :: Setting real_kernel for ELPA failed ***

     1 OT DIIS     0.80E-01    9.1     0.00433546     -6908.6551716302 -6.91E+03

 *** WARNING in fm/cp_fm_elpa.F:521 :: Setting real_kernel for ELPA failed ***

     2 OT DIIS     0.80E-01    7.1     0.00332855     -6913.9329775070 -5.28E+00

 *** WARNING in fm/cp_fm_elpa.F:521 :: Setting real_kernel for ELPA failed ***

     3 OT DIIS     0.80E-01    5.7     0.00217473     -6916.2901845943 -2.36E+00

 *** WARNING in fm/cp_fm_elpa.F:521 :: Setting real_kernel for ELPA failed ***

     4 OT DIIS     0.80E-01    6.7     0.00141746     -6918.4909899693 -2.20E+00

 *** WARNING in fm/cp_fm_elpa.F:521 :: Setting real_kernel for ELPA failed ***

     5 OT DIIS     0.80E-01    5.9     0.00110424     -6919.2736390505 -7.83E-01

 *** WARNING in fm/cp_fm_elpa.F:521 :: Setting real_kernel for ELPA failed ***

     6 OT DIIS     0.80E-01    5.7     0.00126410     -6919.4406167789 -1.67E-01

 *** WARNING in fm/cp_fm_elpa.F:521 :: Setting real_kernel for ELPA failed ***

     7 OT DIIS     0.80E-01    6.0     0.00051621     -6919.6279274123 -1.87E-01

 *** WARNING in fm/cp_fm_elpa.F:521 :: Setting real_kernel for ELPA failed ***

     8 OT DIIS     0.80E-01    6.0     0.00047192     -6919.7088648828 -8.09E-02

 *** WARNING in fm/cp_fm_elpa.F:521 :: Setting real_kernel for ELPA failed ***

     9 OT DIIS     0.80E-01    6.0     0.00037770     -6919.7662072675 -5.73E-02

 *** WARNING in fm/cp_fm_elpa.F:521 :: Setting real_kernel for ELPA failed ***

    10 OT DIIS     0.80E-01    6.2     0.00026351     -6919.8111217812 -4.49E-02

 *** WARNING in fm/cp_fm_elpa.F:521 :: Setting real_kernel for ELPA failed ***

    11 OT DIIS     0.80E-01    5.8     0.00025219     -6919.8290444584 -1.79E-02

 *** WARNING in fm/cp_fm_elpa.F:521 :: Setting real_kernel for ELPA failed ***

    12 OT DIIS     0.80E-01    5.7     0.00016386     -6919.8517985960 -2.28E-02

 *** WARNING in fm/cp_fm_elpa.F:521 :: Setting real_kernel for ELPA failed ***

    13 OT DIIS     0.80E-01    5.6     0.00014708     -6919.8621304256 -1.03E-02

 *** WARNING in fm/cp_fm_elpa.F:521 :: Setting real_kernel for ELPA failed ***

    14 OT DIIS     0.80E-01    5.9     0.00014916     -6919.8740348572 -1.19E-02

 *** WARNING in fm/cp_fm_elpa.F:521 :: Setting real_kernel for ELPA failed ***

    15 OT DIIS     0.80E-01    6.2     0.00012282     -6919.8795432617 -5.51E-03

 *** WARNING in fm/cp_fm_elpa.F:521 :: Setting real_kernel for ELPA failed ***

    16 OT DIIS     0.80E-01    5.9     0.00010081     -6919.8859367650 -6.39E-03

 *** WARNING in fm/cp_fm_elpa.F:521 :: Setting real_kernel for ELPA failed ***

    17 OT DIIS     0.80E-01    6.1     0.00008997     -6919.8907705828 -4.83E-03

 *** WARNING in fm/cp_fm_elpa.F:521 :: Setting real_kernel for ELPA failed ***

    18 OT DIIS     0.80E-01    6.2     0.00007496     -6919.8943840050 -3.61E-03

 *** WARNING in fm/cp_fm_elpa.F:521 :: Setting real_kernel for ELPA failed ***

    19 OT DIIS     0.80E-01    6.4     0.00007522     -6919.8979582547 -3.57E-03

 *** WARNING in fm/cp_fm_elpa.F:521 :: Setting real_kernel for ELPA failed ***

    20 OT DIIS     0.80E-01    5.9     0.00006302     -6919.9006660382 -2.71E-03

 *** WARNING in fm/cp_fm_elpa.F:521 :: Setting real_kernel for ELPA failed ***


 *** WARNING in fm/cp_fm_elpa.F:521 :: Setting real_kernel for ELPA failed ***

    21 OT DIIS     0.80E-01    6.3     0.00005580     -6919.9028973238 -2.23E-03

 *** WARNING in fm/cp_fm_elpa.F:521 :: Setting real_kernel for ELPA failed ***

    22 OT DIIS     0.80E-01    6.0     0.00005246     -6919.9053075586 -2.41E-03

 *** WARNING in fm/cp_fm_elpa.F:521 :: Setting real_kernel for ELPA failed ***

    23 OT DIIS     0.80E-01    6.0     0.00004846     -6919.9063754418 -1.07E-03

 *** WARNING in fm/cp_fm_elpa.F:521 :: Setting real_kernel for ELPA failed ***

    24 OT DIIS     0.80E-01    5.9     0.00004291     -6919.9077189512 -1.34E-03

 *** WARNING in fm/cp_fm_elpa.F:521 :: Setting real_kernel for ELPA failed ***

    25 OT DIIS     0.80E-01    6.3     0.00003948     -6919.9088476137 -1.13E-03

 *** WARNING in fm/cp_fm_elpa.F:521 :: Setting real_kernel for ELPA failed ***

    26 OT DIIS     0.80E-01    6.1     0.00003441     -6919.9098094385 -9.62E-04

 *** WARNING in fm/cp_fm_elpa.F:521 :: Setting real_kernel for ELPA failed ***

    27 OT DIIS     0.80E-01    6.4     0.00003379     -6919.9108284245 -1.02E-03

 *** WARNING in fm/cp_fm_elpa.F:521 :: Setting real_kernel for ELPA failed ***

    28 OT DIIS     0.80E-01    5.9     0.00002976     -6919.9113800226 -5.52E-04

 *** WARNING in fm/cp_fm_elpa.F:521 :: Setting real_kernel for ELPA failed ***

    29 OT DIIS     0.80E-01    5.8     0.00002687     -6919.9119083540 -5.28E-04

 *** WARNING in fm/cp_fm_elpa.F:521 :: Setting real_kernel for ELPA failed ***

    30 OT DIIS     0.80E-01    5.6     0.00002522     -6919.9125001742 -5.92E-04

 *** WARNING in fm/cp_fm_elpa.F:521 :: Setting real_kernel for ELPA failed ***

    31 OT DIIS     0.80E-01    5.8     0.00002538     -6919.9128593532 -3.59E-04

 *** WARNING in fm/cp_fm_elpa.F:521 :: Setting real_kernel for ELPA failed ***

    32 OT DIIS     0.80E-01    6.3     0.00002290     -6919.9132684015 -4.09E-04

 *** WARNING in fm/cp_fm_elpa.F:521 :: Setting real_kernel for ELPA failed ***

    33 OT DIIS     0.80E-01    6.3     0.00002135     -6919.9136064055 -3.38E-04

 *** WARNING in fm/cp_fm_elpa.F:521 :: Setting real_kernel for ELPA failed ***

    34 OT DIIS     0.80E-01    6.3     0.00001895     -6919.9138671766 -2.61E-04

 *** WARNING in fm/cp_fm_elpa.F:521 :: Setting real_kernel for ELPA failed ***

    35 OT DIIS     0.80E-01    5.8     0.00001821     -6919.9141911732 -3.24E-04

 *** WARNING in fm/cp_fm_elpa.F:521 :: Setting real_kernel for ELPA failed ***

    36 OT DIIS     0.80E-01    6.8     0.00001762     -6919.9143830789 -1.92E-04

 *** WARNING in fm/cp_fm_elpa.F:521 :: Setting real_kernel for ELPA failed ***

    37 OT DIIS     0.80E-01    6.6     0.00001666     -6919.9146353003 -2.52E-04

 *** WARNING in fm/cp_fm_elpa.F:521 :: Setting real_kernel for ELPA failed ***

    38 OT DIIS     0.80E-01    5.8     0.00001573     -6919.9148975174 -2.62E-04

 *** WARNING in fm/cp_fm_elpa.F:521 :: Setting real_kernel for ELPA failed ***

    39 OT DIIS     0.80E-01    7.1     0.00001533     -6919.9150630081 -1.65E-04

 *** WARNING in fm/cp_fm_elpa.F:521 :: Setting real_kernel for ELPA failed ***

    40 OT DIIS     0.80E-01    5.8     0.00001423     -6919.9152333366 -1.70E-04

 *** WARNING in fm/cp_fm_elpa.F:521 :: Setting real_kernel for ELPA failed ***


 *** WARNING in fm/cp_fm_elpa.F:521 :: Setting real_kernel for ELPA failed ***

    41 OT DIIS     0.80E-01    6.2     0.00001380     -6919.9153924103 -1.59E-04

 *** WARNING in fm/cp_fm_elpa.F:521 :: Setting real_kernel for ELPA failed ***

    42 OT DIIS     0.80E-01    5.4     0.00001293     -6919.9155441867 -1.52E-04

 *** WARNING in fm/cp_fm_elpa.F:521 :: Setting real_kernel for ELPA failed ***

    43 OT DIIS     0.80E-01    6.3     0.00001276     -6919.9157548939 -2.11E-04

 *** WARNING in fm/cp_fm_elpa.F:521 :: Setting real_kernel for ELPA failed ***

    44 OT DIIS     0.80E-01    5.6     0.00001214     -6919.9158666373 -1.12E-04

 *** WARNING in fm/cp_fm_elpa.F:521 :: Setting real_kernel for ELPA failed ***

    45 OT DIIS     0.80E-01    6.1     0.00001133     -6919.9160031856 -1.37E-04

 *** WARNING in fm/cp_fm_elpa.F:521 :: Setting real_kernel for ELPA failed ***

    46 OT DIIS     0.80E-01    5.9     0.00001084     -6919.9161291632 -1.26E-04

 *** WARNING in fm/cp_fm_elpa.F:521 :: Setting real_kernel for ELPA failed ***

    47 OT DIIS     0.80E-01    6.5     0.00001111     -6919.9162417704 -1.13E-04

 *** WARNING in fm/cp_fm_elpa.F:521 :: Setting real_kernel for ELPA failed ***

    48 OT DIIS     0.80E-01    6.1     0.00001043     -6919.9163523208 -1.11E-04

 *** WARNING in fm/cp_fm_elpa.F:521 :: Setting real_kernel for ELPA failed ***

    49 OT DIIS     0.80E-01    5.8     0.00001017     -6919.9164646548 -1.12E-04

 *** WARNING in fm/cp_fm_elpa.F:521 :: Setting real_kernel for ELPA failed ***

    50 OT DIIS     0.80E-01    6.3     0.00000934     -6919.9165432505 -7.86E-05

 *** WARNING in fm/cp_fm_elpa.F:521 :: Setting real_kernel for ELPA failed ***

    51 OT DIIS     0.80E-01    5.5     0.00000876     -6919.9166313701 -8.81E-05

 *** WARNING in fm/cp_fm_elpa.F:521 :: Setting real_kernel for ELPA failed ***

    52 OT DIIS     0.80E-01    6.0     0.00000892     -6919.9166964422 -6.51E-05
