 DBCSR| CPU Multiplication driver                                           BLAS (U)
 DBCSR| Multrec recursion limit                                              512 (U)
 DBCSR| Multiplication stack size                                           1000 (D)
 DBCSR| Maximum elements for images                                    UNLIMITED (U)
 DBCSR| Multiplicative factor virtual images                                   1 (U)
 DBCSR| Use multiplication densification                                       T (D)
 DBCSR| Multiplication size stacks                                             3 (U)
 DBCSR| Use memory pool for CPU allocation                                     F (U)
 DBCSR| Number of 3D layers                                               SINGLE (U)
 DBCSR| Use MPI memory allocation                                              F (U)
 DBCSR| Use RMA algorithm                                                      F (U)
 DBCSR| Use Communication thread                                               T (U)
 DBCSR| Communication thread load                                             87 (D)
 DBCSR| MPI: My process id                                                     0
 DBCSR| MPI: Number of processes                                             324
 DBCSR| OMP: Current number of threads                                         1
 DBCSR| OMP: Max number of threads                                             1
 DBCSR| Split modifier for TAS multiplication algorithm                  1.0E+00 (U)


  **** **** ******  **  PROGRAM STARTED AT               2025-11-07 10:47:11.769
 ***** ** ***  *** **   PROGRAM STARTED ON                                cn5322
 **    ****   ******    PROGRAM STARTED BY                                tiansc
 ***** **    ** ** **   PROGRAM PROCESS ID                                372413
  **** **  *******  **  PROGRAM STARTED IN /fs2/home/tiansc/Ov_Ni-FeOx_AIMD/test
                                           /213

 CP2K| version string:                 CP2K version 2025.2 (Development Version)
 CP2K| source code revision number:                                  git:b25f040
 CP2K| cp2kflags: omp libint fftw3 libxc libgrpp elpa parallel scalapack cosma d
 CP2K|            eepmd plumed2 spglib libdftd4 sirius libvori libbqb libtorch l
 CP2K|            libvdwxc hdf5 trexio libsmeagol greenx
 CP2K| is freely available from                            https://www.cp2k.org/
 CP2K| Program compiled at                          Wed Oct 29 13:40:35 CST 2025
 CP2K| Program compiled on                                             th-ex-ln2
 CP2K| Program compiled for                                                local
 CP2K| Data directory path              /fs2/software/cp2k/pkg/cp2k-gcc12.2/data
 CP2K| Input file name                                           HAP_213_opt.inp

 GLOBAL| Force Environment number                                              1
 GLOBAL| Basis set file name                                        BASIS_MOLOPT
 GLOBAL| Potential file name                                      GTH_POTENTIALS
 GLOBAL| MM Potential file name                                     MM_POTENTIAL
 GLOBAL| Coordinate file name                                  HAP_213_clean.xyz
 GLOBAL| Method name                                                        CP2K
 GLOBAL| Project name                                                HAP_213_opt
 GLOBAL| Run type                                                        GEO_OPT
 GLOBAL| FFT library                                                       FFTW3
 GLOBAL| Diagonalization library                                            ELPA
 GLOBAL| Cholesky decomposition library                                ScaLAPACK
 GLOBAL| DGEMM library                                                      BLAS
 GLOBAL| Minimum number of eigenvectors for ELPA usage                        16
 GLOBAL| Orthonormality check for eigenvectors                          DISABLED
 GLOBAL| Matrix multiplication library                                     COSMA
 GLOBAL| All-to-all communication in single precision                          F
 GLOBAL| FFTs using library dependent lengths                                  F
 GLOBAL| Grid backend                                                       AUTO
 GLOBAL| Global print level                                                  LOW
 GLOBAL| MPI I/O enabled                                                       T
 GLOBAL| Total number of message passing processes                           324
 GLOBAL| Number of threads for this process                                    1
 GLOBAL| This output is from process                                           0
 GLOBAL| OpenMP stack size per thread (OMP_STACKSIZE)                    default
 GLOBAL| CPU model name                 Intel(R) Xeon(R) Gold 6348 CPU @ 2.60GHz
 GLOBAL| CPUID                                                              1003

 MEMORY| system memory details [Kb]
 MEMORY|                        rank 0           min           max       average
 MEMORY| MemTotal            263245640     263245628     263245640     263245638
 MEMORY| MemFree             248399716     247340436     249837956     248862668
 MEMORY| Buffers                     0             0             0             0
 MEMORY| Cached                3291224       2851044       4021048       3186197
 MEMORY| Slab                   910612        782588       1118564        926412
 MEMORY| SReclaimable           173248        173248        280036        217820
 MEMORY| MemLikelyFree       251864188     251641520     252879576     252266685


 GENERATE|  Preliminary Number of Bonds generated:                             0
 GENERATE|  Achieved consistency in connectivity generation.

 *******************************************************************************
 *******************************************************************************
 **                                                                           **
 **     #####                         ##              ##                      **
 **    ##   ##            ##          ##              ##                      **
 **   ##     ##                       ##            ######                    **
 **   ##     ##  ##   ##  ##   #####  ##  ##   ####   ##    #####    #####    **
 **   ##     ##  ##   ##  ##  ##      ## ##   ##      ##   ##   ##  ##   ##   **
 **   ##  ## ##  ##   ##  ##  ##      ####     ###    ##   ######   ######    **
 **    ##  ###   ##   ##  ##  ##      ## ##      ##   ##   ##       ##        **
 **     #######   #####   ##   #####  ##  ##  ####    ##    #####   ##        **
 **           ##                                                    ##        **
 **                                                                           **
 **                                                ... make the atoms dance   **
 **                                                                           **
 **            Copyright (C) by CP2K developers group (2000-2025)             **
 **                      J. Chem. Phys. 152, 194103 (2020)                    **
 **                                                                           **
 *******************************************************************************


 TOTAL NUMBERS AND MAXIMUM NUMBERS

  Total number of            - Atomic kinds:                                   5
                             - Atoms:                                        387
                             - Shell sets:                                   387
                             - Shells:                                      2015
                             - Primitive Cartesian functions:               2031
                             - Cartesian basis functions:                   5338
                             - Spherical basis functions:                   4983

  Maximum angular momentum of- Orbital basis functions:                        2
                             - Local part of the GTH pseudopotential:          2
                             - Non-local part of the GTH pseudopotential:      3


 SCF PARAMETERS         Density guess:                                    ATOMIC
                        --------------------------------------------------------
                        max_scf:                                             100
                        max_scf_history:                                       0
                        max_diis:                                              4
                        --------------------------------------------------------
                        eps_scf:                                        1.00E-06
                        eps_scf_history:                                0.00E+00
                        eps_diis:                                       0.00E+00
                        eps_eigval:                                     1.00E-05
                        --------------------------------------------------------
                        level_shift [a.u.]:                             0.000000
                        --------------------------------------------------------
                        Outer loop SCF in use 
                        No variables optimised in outer loop
                        eps_scf                                         1.00E-06
                        max_scf                                               50
                        No outer loop optimization
                        step_size                                       5.00E-01

 *******************************************************************************
 ***                     STARTING GEOMETRY OPTIMIZATION                      ***
 ***                                 L-BFGS                                  ***
 *******************************************************************************

 --------------------------
 OPTIMIZATION STEP:      1
 --------------------------

 Extrapolation method: initial_guess

 Number of electrons:                                                       2432
 Number of occupied orbitals:                                               1216
 Number of molecular orbitals:                                              1216

 Number of orbital functions:                                               4983
 Number of independent orbital functions:                                   4983


 SCF WAVEFUNCTION OPTIMIZATION

  ----------------------------------- OT ---------------------------------------
  Minimizer      : DIIS                : direct inversion
                                         in the iterative subspace
                                         using   7 DIIS vectors
                                         safer DIIS on
  Preconditioner : FULL_SINGLE_INVERSE : inversion of 
                                         H + eS - 2*(Sc)(c^T*H*c+const)(Sc)^T
  Precond_solver : DEFAULT
  stepsize       :    0.08000000                  energy_gap     :    0.08000000
  eps_taylor     :   0.10000E-15                  max_taylor     :             4
  ----------------------------------- OT ---------------------------------------

  Step     Update method      Time    Convergence         Total energy    Change
  ------------------------------------------------------------------------------

 *** WARNING in fm/cp_fm_elpa.F:521 :: Setting real_kernel for ELPA failed ***

     1 OT DIIS     0.80E-01    9.2     0.01572201     -6704.4791028656 -6.70E+03

 *** WARNING in fm/cp_fm_elpa.F:521 :: Setting real_kernel for ELPA failed ***

     2 OT DIIS     0.80E-01    8.5     0.01048702     -6776.0530158787 -7.16E+01

 *** WARNING in fm/cp_fm_elpa.F:521 :: Setting real_kernel for ELPA failed ***

     3 OT DIIS     0.80E-01    7.8     0.00802548     -6805.0783075238 -2.90E+01

 *** WARNING in fm/cp_fm_elpa.F:521 :: Setting real_kernel for ELPA failed ***

     4 OT DIIS     0.80E-01    7.1     0.00577266     -6828.4578821336 -2.34E+01

 *** WARNING in fm/cp_fm_elpa.F:521 :: Setting real_kernel for ELPA failed ***

     5 OT DIIS     0.80E-01    8.4     0.00396834     -6850.5345206425 -2.21E+01

 *** WARNING in fm/cp_fm_elpa.F:521 :: Setting real_kernel for ELPA failed ***

     6 OT DIIS     0.80E-01    8.6     0.00306188     -6864.2746440645 -1.37E+01

 *** WARNING in fm/cp_fm_elpa.F:521 :: Setting real_kernel for ELPA failed ***

     7 OT DIIS     0.80E-01    7.5     0.00246683     -6873.0093067708 -8.73E+00

 *** WARNING in fm/cp_fm_elpa.F:521 :: Setting real_kernel for ELPA failed ***

     8 OT DIIS     0.80E-01    8.0     0.00192183     -6880.1642263018 -7.15E+00

 *** WARNING in fm/cp_fm_elpa.F:521 :: Setting real_kernel for ELPA failed ***

     9 OT DIIS     0.80E-01    8.3     0.00150004     -6885.1859187012 -5.02E+00

 *** WARNING in fm/cp_fm_elpa.F:521 :: Setting real_kernel for ELPA failed ***

    10 OT DIIS     0.80E-01    7.9     0.00118723     -6888.3910447619 -3.21E+00

 *** WARNING in fm/cp_fm_elpa.F:521 :: Setting real_kernel for ELPA failed ***

    11 OT DIIS     0.80E-01    8.3     0.00096081     -6890.5125645517 -2.12E+00

 *** WARNING in fm/cp_fm_elpa.F:521 :: Setting real_kernel for ELPA failed ***

    12 OT DIIS     0.80E-01    9.1     0.00077977     -6892.0200703091 -1.51E+00

 *** WARNING in fm/cp_fm_elpa.F:521 :: Setting real_kernel for ELPA failed ***

    13 OT DIIS     0.80E-01    8.5     0.00064591     -6893.0668483227 -1.05E+00

 *** WARNING in fm/cp_fm_elpa.F:521 :: Setting real_kernel for ELPA failed ***

    14 OT DIIS     0.80E-01    7.6     0.00054972     -6893.7812329268 -7.14E-01

 *** WARNING in fm/cp_fm_elpa.F:521 :: Setting real_kernel for ELPA failed ***

    15 OT DIIS     0.80E-01    7.9     0.00047681     -6894.2827569252 -5.02E-01

 *** WARNING in fm/cp_fm_elpa.F:521 :: Setting real_kernel for ELPA failed ***

    16 OT DIIS     0.80E-01    8.4     0.00041444     -6894.6761767644 -3.93E-01

 *** WARNING in fm/cp_fm_elpa.F:521 :: Setting real_kernel for ELPA failed ***

    17 OT DIIS     0.80E-01    7.4     0.00036723     -6894.9704209313 -2.94E-01

 *** WARNING in fm/cp_fm_elpa.F:521 :: Setting real_kernel for ELPA failed ***

    18 OT DIIS     0.80E-01    7.6     0.00031503     -6895.2713232445 -3.01E-01

 *** WARNING in fm/cp_fm_elpa.F:521 :: Setting real_kernel for ELPA failed ***

    19 OT DIIS     0.80E-01    7.4     0.00027982     -6895.4711467625 -2.00E-01

 *** WARNING in fm/cp_fm_elpa.F:521 :: Setting real_kernel for ELPA failed ***

    20 OT DIIS     0.80E-01    8.0     0.00025124     -6895.6253139825 -1.54E-01

 *** WARNING in fm/cp_fm_elpa.F:521 :: Setting real_kernel for ELPA failed ***


 *** WARNING in fm/cp_fm_elpa.F:521 :: Setting real_kernel for ELPA failed ***

    21 OT DIIS     0.80E-01    8.6     0.00022036     -6895.7964537943 -1.71E-01

 *** WARNING in fm/cp_fm_elpa.F:521 :: Setting real_kernel for ELPA failed ***

    22 OT DIIS     0.80E-01    7.5     0.00020164     -6895.8906342315 -9.42E-02

 *** WARNING in fm/cp_fm_elpa.F:521 :: Setting real_kernel for ELPA failed ***

    23 OT DIIS     0.80E-01    9.1     0.00018417     -6895.9807517847 -9.01E-02

 *** WARNING in fm/cp_fm_elpa.F:521 :: Setting real_kernel for ELPA failed ***

    24 OT DIIS     0.80E-01    7.6     0.00016655     -6896.0711594660 -9.04E-02

 *** WARNING in fm/cp_fm_elpa.F:521 :: Setting real_kernel for ELPA failed ***

    25 OT DIIS     0.80E-01    8.4     0.00015356     -6896.1321416620 -6.10E-02

 *** WARNING in fm/cp_fm_elpa.F:521 :: Setting real_kernel for ELPA failed ***

    26 OT DIIS     0.80E-01    7.8     0.00014157     -6896.1896865697 -5.75E-02

 *** WARNING in fm/cp_fm_elpa.F:521 :: Setting real_kernel for ELPA failed ***

    27 OT DIIS     0.80E-01    8.3     0.00012950     -6896.2431022106 -5.34E-02

 *** WARNING in fm/cp_fm_elpa.F:521 :: Setting real_kernel for ELPA failed ***

    28 OT DIIS     0.80E-01    7.9     0.00011919     -6896.2951411821 -5.20E-02

 *** WARNING in fm/cp_fm_elpa.F:521 :: Setting real_kernel for ELPA failed ***

    29 OT DIIS     0.80E-01    8.2     0.00011139     -6896.3284646819 -3.33E-02

 *** WARNING in fm/cp_fm_elpa.F:521 :: Setting real_kernel for ELPA failed ***

    30 OT DIIS     0.80E-01    8.0     0.00010211     -6896.3690627540 -4.06E-02

 *** WARNING in fm/cp_fm_elpa.F:521 :: Setting real_kernel for ELPA failed ***

    31 OT DIIS     0.80E-01    8.8     0.00009432     -6896.4039470525 -3.49E-02

 *** WARNING in fm/cp_fm_elpa.F:521 :: Setting real_kernel for ELPA failed ***

    32 OT DIIS     0.80E-01    7.1     0.00008841     -6896.4287871716 -2.48E-02

 *** WARNING in fm/cp_fm_elpa.F:521 :: Setting real_kernel for ELPA failed ***

    33 OT DIIS     0.80E-01    9.0     0.00008307     -6896.4505126793 -2.17E-02

 *** WARNING in fm/cp_fm_elpa.F:521 :: Setting real_kernel for ELPA failed ***

    34 OT DIIS     0.80E-01    7.7     0.00007680     -6896.4757089440 -2.52E-02

 *** WARNING in fm/cp_fm_elpa.F:521 :: Setting real_kernel for ELPA failed ***

    35 OT DIIS     0.80E-01    8.6     0.00007201     -6896.4978558943 -2.21E-02

 *** WARNING in fm/cp_fm_elpa.F:521 :: Setting real_kernel for ELPA failed ***

    36 OT DIIS     0.80E-01    7.6     0.00006887     -6896.5110638645 -1.32E-02

 *** WARNING in fm/cp_fm_elpa.F:521 :: Setting real_kernel for ELPA failed ***

    37 OT DIIS     0.80E-01    8.8     0.00006522     -6896.5273517368 -1.63E-02

 *** WARNING in fm/cp_fm_elpa.F:521 :: Setting real_kernel for ELPA failed ***

    38 OT DIIS     0.80E-01    8.0     0.00006035     -6896.5498551336 -2.25E-02

 *** WARNING in fm/cp_fm_elpa.F:521 :: Setting real_kernel for ELPA failed ***

    39 OT DIIS     0.80E-01    8.9     0.00005787     -6896.5614670910 -1.16E-02

 *** WARNING in fm/cp_fm_elpa.F:521 :: Setting real_kernel for ELPA failed ***

    40 OT DIIS     0.80E-01    8.1     0.00005558     -6896.5695449586 -8.08E-03

 *** WARNING in fm/cp_fm_elpa.F:521 :: Setting real_kernel for ELPA failed ***


 *** WARNING in fm/cp_fm_elpa.F:521 :: Setting real_kernel for ELPA failed ***

    41 OT DIIS     0.80E-01    7.8     0.00005158     -6896.5860642430 -1.65E-02

 *** WARNING in fm/cp_fm_elpa.F:521 :: Setting real_kernel for ELPA failed ***

    42 OT DIIS     0.80E-01    7.6     0.00004864     -6896.5984807200 -1.24E-02

 *** WARNING in fm/cp_fm_elpa.F:521 :: Setting real_kernel for ELPA failed ***

    43 OT DIIS     0.80E-01    8.6     0.00004655     -6896.6058288699 -7.35E-03

 *** WARNING in fm/cp_fm_elpa.F:521 :: Setting real_kernel for ELPA failed ***

    44 OT DIIS     0.80E-01    8.3     0.00004371     -6896.6166332183 -1.08E-02

 *** WARNING in fm/cp_fm_elpa.F:521 :: Setting real_kernel for ELPA failed ***

    45 OT DIIS     0.80E-01    8.9     0.00004137     -6896.6274934155 -1.09E-02

 *** WARNING in fm/cp_fm_elpa.F:521 :: Setting real_kernel for ELPA failed ***

    46 OT DIIS     0.80E-01    8.3     0.00004008     -6896.6332001796 -5.71E-03

 *** WARNING in fm/cp_fm_elpa.F:521 :: Setting real_kernel for ELPA failed ***

    47 OT DIIS     0.80E-01    8.3     0.00003752     -6896.6397010270 -6.50E-03

 *** WARNING in fm/cp_fm_elpa.F:521 :: Setting real_kernel for ELPA failed ***

    48 OT DIIS     0.80E-01    6.8     0.00003523     -6896.6480015320 -8.30E-03

 *** WARNING in fm/cp_fm_elpa.F:521 :: Setting real_kernel for ELPA failed ***

    49 OT DIIS     0.80E-01    8.8     0.00003312     -6896.6551670888 -7.17E-03

 *** WARNING in fm/cp_fm_elpa.F:521 :: Setting real_kernel for ELPA failed ***

    50 OT DIIS     0.80E-01    8.2     0.00003160     -6896.6603772153 -5.21E-03

 *** WARNING in fm/cp_fm_elpa.F:521 :: Setting real_kernel for ELPA failed ***

    51 OT DIIS     0.80E-01    8.9     0.00003034     -6896.6649763899 -4.60E-03

 *** WARNING in fm/cp_fm_elpa.F:521 :: Setting real_kernel for ELPA failed ***

    52 OT DIIS     0.80E-01    9.0     0.00002922     -6896.6695833289 -4.61E-03

 *** WARNING in fm/cp_fm_elpa.F:521 :: Setting real_kernel for ELPA failed ***

    53 OT DIIS     0.80E-01    7.6     0.00002851     -6896.6731628514 -3.58E-03

 *** WARNING in fm/cp_fm_elpa.F:521 :: Setting real_kernel for ELPA failed ***

    54 OT DIIS     0.80E-01    8.2     0.00002744     -6896.6762703509 -3.11E-03

 *** WARNING in fm/cp_fm_elpa.F:521 :: Setting real_kernel for ELPA failed ***

    55 OT DIIS     0.80E-01    8.8     0.00002634     -6896.6804002385 -4.13E-03

 *** WARNING in fm/cp_fm_elpa.F:521 :: Setting real_kernel for ELPA failed ***

    56 OT DIIS     0.80E-01    7.6     0.00002541     -6896.6842927828 -3.89E-03

 *** WARNING in fm/cp_fm_elpa.F:521 :: Setting real_kernel for ELPA failed ***

    57 OT DIIS     0.80E-01    8.0     0.00002405     -6896.6888407869 -4.55E-03

 *** WARNING in fm/cp_fm_elpa.F:521 :: Setting real_kernel for ELPA failed ***

    58 OT DIIS     0.80E-01    8.6     0.00002294     -6896.6928132142 -3.97E-03

 *** WARNING in fm/cp_fm_elpa.F:521 :: Setting real_kernel for ELPA failed ***

    59 OT DIIS     0.80E-01    8.3     0.00002208     -6896.6953875744 -2.57E-03

 *** WARNING in fm/cp_fm_elpa.F:521 :: Setting real_kernel for ELPA failed ***

    60 OT DIIS     0.80E-01    7.6     0.00002150     -6896.6972632366 -1.88E-03

 *** WARNING in fm/cp_fm_elpa.F:521 :: Setting real_kernel for ELPA failed ***


 *** WARNING in fm/cp_fm_elpa.F:521 :: Setting real_kernel for ELPA failed ***

    61 OT DIIS     0.80E-01    8.0     0.00002085     -6896.6994070351 -2.14E-03

 *** WARNING in fm/cp_fm_elpa.F:521 :: Setting real_kernel for ELPA failed ***

    62 OT DIIS     0.80E-01    8.0     0.00002001     -6896.7024226527 -3.02E-03

 *** WARNING in fm/cp_fm_elpa.F:521 :: Setting real_kernel for ELPA failed ***

    63 OT DIIS     0.80E-01    8.2     0.00001933     -6896.7046792241 -2.26E-03

 *** WARNING in fm/cp_fm_elpa.F:521 :: Setting real_kernel for ELPA failed ***

    64 OT DIIS     0.80E-01    8.2     0.00001841     -6896.7078658908 -3.19E-03

 *** WARNING in fm/cp_fm_elpa.F:521 :: Setting real_kernel for ELPA failed ***

    65 OT DIIS     0.80E-01    7.8     0.00001784     -6896.7097968512 -1.93E-03

 *** WARNING in fm/cp_fm_elpa.F:521 :: Setting real_kernel for ELPA failed ***

    66 OT DIIS     0.80E-01    9.1     0.00001744     -6896.7110415751 -1.24E-03

 *** WARNING in fm/cp_fm_elpa.F:521 :: Setting real_kernel for ELPA failed ***

    67 OT DIIS     0.80E-01    8.5     0.00001705     -6896.7122572401 -1.22E-03

 *** WARNING in fm/cp_fm_elpa.F:521 :: Setting real_kernel for ELPA failed ***

    68 OT DIIS     0.80E-01    8.4     0.00001660     -6896.7136846810 -1.43E-03

 *** WARNING in fm/cp_fm_elpa.F:521 :: Setting real_kernel for ELPA failed ***

    69 OT DIIS     0.80E-01    8.0     0.00001626     -6896.7149056628 -1.22E-03

 *** WARNING in fm/cp_fm_elpa.F:521 :: Setting real_kernel for ELPA failed ***

    70 OT DIIS     0.80E-01    6.8     0.00001586     -6896.7165200790 -1.61E-03

 *** WARNING in fm/cp_fm_elpa.F:521 :: Setting real_kernel for ELPA failed ***

    71 OT DIIS     0.80E-01    8.5     0.00001532     -6896.7189592663 -2.44E-03

 *** WARNING in fm/cp_fm_elpa.F:521 :: Setting real_kernel for ELPA failed ***

    72 OT DIIS     0.80E-01    7.7     0.00001492     -6896.7207353032 -1.78E-03

 *** WARNING in fm/cp_fm_elpa.F:521 :: Setting real_kernel for ELPA failed ***

    73 OT DIIS     0.80E-01    8.6     0.00001442     -6896.7226142043 -1.88E-03

 *** WARNING in fm/cp_fm_elpa.F:521 :: Setting real_kernel for ELPA failed ***

    74 OT DIIS     0.80E-01    8.4     0.00001420     -6896.7253839446 -2.77E-03

 *** WARNING in fm/cp_fm_elpa.F:521 :: Setting real_kernel for ELPA failed ***

    75 OT DIIS     0.80E-01    7.5     0.00001377     -6896.7259848794 -6.01E-04

 *** WARNING in fm/cp_fm_elpa.F:521 :: Setting real_kernel for ELPA failed ***

    76 OT DIIS     0.80E-01    8.9     0.00001393     -6896.7283154639 -2.33E-03

 *** WARNING in fm/cp_fm_elpa.F:521 :: Setting real_kernel for ELPA failed ***

    77 OT DIIS     0.80E-01    7.8     0.00001290     -6896.7291266810 -8.11E-04

 *** WARNING in fm/cp_fm_elpa.F:521 :: Setting real_kernel for ELPA failed ***

    78 OT DIIS     0.80E-01    7.7     0.00001258     -6896.7312309347 -2.10E-03

 *** WARNING in fm/cp_fm_elpa.F:521 :: Setting real_kernel for ELPA failed ***

    79 OT DIIS     0.80E-01    8.5     0.00001173     -6896.7325615233 -1.33E-03

 *** WARNING in fm/cp_fm_elpa.F:521 :: Setting real_kernel for ELPA failed ***

    80 OT DIIS     0.80E-01    7.4     0.00001128     -6896.7338523914 -1.29E-03

 *** WARNING in fm/cp_fm_elpa.F:521 :: Setting real_kernel for ELPA failed ***


 *** WARNING in fm/cp_fm_elpa.F:521 :: Setting real_kernel for ELPA failed ***

    81 OT DIIS     0.80E-01    8.6     0.00001101     -6896.7354194086 -1.57E-03

 *** WARNING in fm/cp_fm_elpa.F:521 :: Setting real_kernel for ELPA failed ***

    82 OT DIIS     0.80E-01    7.4     0.00001208     -6896.7360512612 -6.32E-04

 *** WARNING in fm/cp_fm_elpa.F:521 :: Setting real_kernel for ELPA failed ***

    83 OT DIIS     0.80E-01    8.6     0.00001023     -6896.7367523127 -7.01E-04

 *** WARNING in fm/cp_fm_elpa.F:521 :: Setting real_kernel for ELPA failed ***

    84 OT DIIS     0.80E-01    7.8     0.00001000     -6896.7375382500 -7.86E-04

 *** WARNING in fm/cp_fm_elpa.F:521 :: Setting real_kernel for ELPA failed ***

    85 OT DIIS     0.80E-01    8.0     0.00000968     -6896.7384537191 -9.15E-04

 *** WARNING in fm/cp_fm_elpa.F:521 :: Setting real_kernel for ELPA failed ***

    86 OT DIIS     0.80E-01    7.4     0.00000940     -6896.7392880320 -8.34E-04

 *** WARNING in fm/cp_fm_elpa.F:521 :: Setting real_kernel for ELPA failed ***

    87 OT DIIS     0.80E-01    8.5     0.00000891     -6896.7403630334 -1.08E-03

 *** WARNING in fm/cp_fm_elpa.F:521 :: Setting real_kernel for ELPA failed ***

    88 OT DIIS     0.80E-01    8.6     0.00000870     -6896.7412425947 -8.80E-04

 *** WARNING in fm/cp_fm_elpa.F:521 :: Setting real_kernel for ELPA failed ***

    89 OT DIIS     0.80E-01    8.6     0.00000831     -6896.7418571685 -6.15E-04

 *** WARNING in fm/cp_fm_elpa.F:521 :: Setting real_kernel for ELPA failed ***

    90 OT DIIS     0.80E-01    7.1     0.00000830     -6896.7422405954 -3.83E-04

 *** WARNING in fm/cp_fm_elpa.F:521 :: Setting real_kernel for ELPA failed ***

    91 OT DIIS     0.80E-01    7.8     0.00000777     -6896.7425902122 -3.50E-04

 *** WARNING in fm/cp_fm_elpa.F:521 :: Setting real_kernel for ELPA failed ***

    92 OT DIIS     0.80E-01    9.2     0.00000731     -6896.7432666156 -6.76E-04

 *** WARNING in fm/cp_fm_elpa.F:521 :: Setting real_kernel for ELPA failed ***

    93 OT DIIS     0.80E-01    8.2     0.00000712     -6896.7435414209 -2.75E-04

 *** WARNING in fm/cp_fm_elpa.F:521 :: Setting real_kernel for ELPA failed ***

    94 OT DIIS     0.80E-01    8.0     0.00000699     -6896.7437514543 -2.10E-04

 *** WARNING in fm/cp_fm_elpa.F:521 :: Setting real_kernel for ELPA failed ***

    95 OT DIIS     0.80E-01    7.8     0.00000688     -6896.7438932795 -1.42E-04

 *** WARNING in fm/cp_fm_elpa.F:521 :: Setting real_kernel for ELPA failed ***

    96 OT DIIS     0.80E-01    8.4     0.00000671     -6896.7442518537 -3.59E-04

 *** WARNING in fm/cp_fm_elpa.F:521 :: Setting real_kernel for ELPA failed ***

    97 OT DIIS     0.80E-01    8.1     0.00000659     -6896.7444454986 -1.94E-04

 *** WARNING in fm/cp_fm_elpa.F:521 :: Setting real_kernel for ELPA failed ***

    98 OT DIIS     0.80E-01    8.1     0.00000646     -6896.7448554311 -4.10E-04

 *** WARNING in fm/cp_fm_elpa.F:521 :: Setting real_kernel for ELPA failed ***

    99 OT DIIS     0.80E-01    8.3     0.00000631     -6896.7452729477 -4.18E-04

 *** WARNING in fm/cp_fm_elpa.F:521 :: Setting real_kernel for ELPA failed ***

   100 OT DIIS     0.80E-01    7.9     0.00000619     -6896.7456720644 -3.99E-04

  Leaving inner SCF loop after reaching   100 steps.


  Electronic density on regular grids:      -2432.0000000044       -0.0000000044
  Core density on regular grids:             2431.9999999988       -0.0000000012
  Total charge density on r-space grids:       -0.0000000056
  Total charge density g-space grids:          -0.0000000056

  Overlap energy of the core charge distribution:               0.02328882044168
  Self energy of the core charge distribution:             -16017.19408509233290
  Core Hamiltonian energy:                                   4315.94223719113143
  Hartree energy:                                            6132.75068631511931
  Exchange-correlation energy:                              -1326.47635155008766
  Dispersion energy:                                           -1.79144774868057

  Total energy:                                             -6896.74567206440861

 *** WARNING in fm/cp_fm_elpa.F:521 :: Setting real_kernel for ELPA failed ***


  outer SCF iter =    1 RMS gradient =   0.62E-05 energy =      -6896.7456720644

  ----------------------------------- OT ---------------------------------------
  Minimizer      : DIIS                : direct inversion
                                         in the iterative subspace
                                         using   7 DIIS vectors
                                         safer DIIS on
  Preconditioner : FULL_SINGLE_INVERSE : inversion of 
                                         H + eS - 2*(Sc)(c^T*H*c+const)(Sc)^T
  Precond_solver : DEFAULT
  stepsize       :    0.08000000                  energy_gap     :    0.08000000
  eps_taylor     :   0.10000E-15                  max_taylor     :             4
  ----------------------------------- OT ---------------------------------------

  Step     Update method      Time    Convergence         Total energy    Change
  ------------------------------------------------------------------------------
     1 OT DIIS     0.80E-01   19.4     0.00008980     -6896.7460333191 -3.61E-04
     2 OT DIIS     0.80E-01    6.1     0.00010487     -6896.7481982766 -2.16E-03
     3 OT DIIS     0.80E-01    6.7     0.00011496     -6896.7487767221 -5.78E-04
     4 OT DIIS     0.80E-01    6.6     0.00008753     -6896.7496387879 -8.62E-04
     5 OT DIIS     0.80E-01    6.7     0.00006223     -6896.7506322714 -9.93E-04
     6 OT DIIS     0.80E-01    7.7     0.00005640     -6896.7511307720 -4.99E-04
     7 OT DIIS     0.80E-01    7.2     0.00004472     -6896.7517016868 -5.71E-04
     8 OT DIIS     0.80E-01    6.5     0.00003896     -6896.7522051107 -5.03E-04
     9 OT DIIS     0.80E-01    6.6     0.00003309     -6896.7526128826 -4.08E-04
    10 OT DIIS     0.80E-01    6.9     0.00003495     -6896.7529993770 -3.86E-04
    11 OT DIIS     0.80E-01    6.8     0.00002978     -6896.7534801141 -4.81E-04
    12 OT DIIS     0.80E-01    7.2     0.00003127     -6896.7538670364 -3.87E-04
    13 OT DIIS     0.80E-01    7.8     0.00003077     -6896.7542465188 -3.79E-04

 *** WARNING in fm/cp_fm_elpa.F:521 :: Setting real_kernel for ELPA failed ***

    14 OT DIIS     0.80E-01    8.1     0.00003009     -6896.7546503792 -4.04E-04

 *** WARNING in fm/cp_fm_elpa.F:521 :: Setting real_kernel for ELPA failed ***

    15 OT DIIS     0.80E-01    8.3     0.00002982     -6896.7549198728 -2.69E-04

 *** WARNING in fm/cp_fm_elpa.F:521 :: Setting real_kernel for ELPA failed ***

    16 OT DIIS     0.80E-01    6.9     0.00002818     -6896.7551990064 -2.79E-04

 *** WARNING in fm/cp_fm_elpa.F:521 :: Setting real_kernel for ELPA failed ***

    17 OT DIIS     0.80E-01    8.4     0.00002723     -6896.7554458796 -2.47E-04

 *** WARNING in fm/cp_fm_elpa.F:521 :: Setting real_kernel for ELPA failed ***

    18 OT DIIS     0.80E-01    8.4     0.00002675     -6896.7558344848 -3.89E-04

 *** WARNING in fm/cp_fm_elpa.F:521 :: Setting real_kernel for ELPA failed ***

    19 OT DIIS     0.80E-01    8.2     0.00002628     -6896.7558535234 -1.90E-05

 *** WARNING in fm/cp_fm_elpa.F:521 :: Setting real_kernel for ELPA failed ***

    20 OT DIIS     0.80E-01    7.6     0.00002708     -6896.7560404797 -1.87E-04

 *** WARNING in fm/cp_fm_elpa.F:521 :: Setting real_kernel for ELPA failed ***


 *** WARNING in fm/cp_fm_elpa.F:521 :: Setting real_kernel for ELPA failed ***

    21 OT DIIS     0.80E-01    8.2     0.00002551     -6896.7562240540 -1.84E-04

 *** WARNING in fm/cp_fm_elpa.F:521 :: Setting real_kernel for ELPA failed ***

    22 OT DIIS     0.80E-01    7.5     0.00002486     -6896.7562587416 -3.47E-05

 *** WARNING in fm/cp_fm_elpa.F:521 :: Setting real_kernel for ELPA failed ***

    23 OT DIIS     0.80E-01    8.5     0.00002353     -6896.7563367752 -7.80E-05

 *** WARNING in fm/cp_fm_elpa.F:521 :: Setting real_kernel for ELPA failed ***

    24 OT DIIS     0.80E-01    7.9     0.00002139     -6896.7563988717 -6.21E-05

 *** WARNING in fm/cp_fm_elpa.F:521 :: Setting real_kernel for ELPA failed ***

    25 OT DIIS     0.80E-01    8.5     0.00002009     -6896.7564864115 -8.75E-05

 *** WARNING in fm/cp_fm_elpa.F:521 :: Setting real_kernel for ELPA failed ***

    26 OT DIIS     0.80E-01    7.7     0.00001956     -6896.7565839514 -9.75E-05

 *** WARNING in fm/cp_fm_elpa.F:521 :: Setting real_kernel for ELPA failed ***

    27 OT DIIS     0.80E-01    8.3     0.00001946     -6896.7566300998 -4.61E-05

 *** WARNING in fm/cp_fm_elpa.F:521 :: Setting real_kernel for ELPA failed ***

    28 OT DIIS     0.80E-01    8.2     0.00001945     -6896.7567349118 -1.05E-04

 *** WARNING in fm/cp_fm_elpa.F:521 :: Setting real_kernel for ELPA failed ***

    29 OT DIIS     0.80E-01    8.1     0.00001952     -6896.7568590743 -1.24E-04

 *** WARNING in fm/cp_fm_elpa.F:521 :: Setting real_kernel for ELPA failed ***

    30 OT DIIS     0.80E-01    8.3     0.00002042     -6896.7569241281 -6.51E-05

 *** WARNING in fm/cp_fm_elpa.F:521 :: Setting real_kernel for ELPA failed ***

    31 OT DIIS     0.80E-01    8.2     0.00002060     -6896.7570260488 -1.02E-04

 *** WARNING in fm/cp_fm_elpa.F:521 :: Setting real_kernel for ELPA failed ***

    32 OT DIIS     0.80E-01    8.2     0.00002014     -6896.7571043589 -7.83E-05

 *** WARNING in fm/cp_fm_elpa.F:521 :: Setting real_kernel for ELPA failed ***

    33 OT DIIS     0.80E-01    7.9     0.00001950     -6896.7572134545 -1.09E-04

 *** WARNING in fm/cp_fm_elpa.F:521 :: Setting real_kernel for ELPA failed ***

    34 OT DIIS     0.80E-01    7.9     0.00001908     -6896.7572633319 -4.99E-05

 *** WARNING in fm/cp_fm_elpa.F:521 :: Setting real_kernel for ELPA failed ***

    35 OT DIIS     0.80E-01    8.3     0.00001869     -6896.7573119119 -4.86E-05

 *** WARNING in fm/cp_fm_elpa.F:521 :: Setting real_kernel for ELPA failed ***

    36 OT DIIS     0.80E-01    8.1     0.00001821     -6896.7573743992 -6.25E-05

 *** WARNING in fm/cp_fm_elpa.F:521 :: Setting real_kernel for ELPA failed ***

    37 OT DIIS     0.80E-01    8.5     0.00001764     -6896.7574508781 -7.65E-05

 *** WARNING in fm/cp_fm_elpa.F:521 :: Setting real_kernel for ELPA failed ***

    38 OT DIIS     0.80E-01    8.0     0.00001769     -6896.7574916671 -4.08E-05

 *** WARNING in fm/cp_fm_elpa.F:521 :: Setting real_kernel for ELPA failed ***

    39 OT DIIS     0.80E-01    7.6     0.00001755     -6896.7575608990 -6.92E-05

 *** WARNING in fm/cp_fm_elpa.F:521 :: Setting real_kernel for ELPA failed ***

    40 OT DIIS     0.80E-01    7.6     0.00001742     -6896.7576267502 -6.59E-05

 *** WARNING in fm/cp_fm_elpa.F:521 :: Setting real_kernel for ELPA failed ***


 *** WARNING in fm/cp_fm_elpa.F:521 :: Setting real_kernel for ELPA failed ***

    41 OT DIIS     0.80E-01    8.2     0.00001738     -6896.7577304074 -1.04E-04

 *** WARNING in fm/cp_fm_elpa.F:521 :: Setting real_kernel for ELPA failed ***

    42 OT DIIS     0.80E-01    8.2     0.00001767     -6896.7577819417 -5.15E-05

 *** WARNING in fm/cp_fm_elpa.F:521 :: Setting real_kernel for ELPA failed ***

    43 OT DIIS     0.80E-01    7.4     0.00001787     -6896.7578777583 -9.58E-05

 *** WARNING in fm/cp_fm_elpa.F:521 :: Setting real_kernel for ELPA failed ***

    44 OT DIIS     0.80E-01    7.8     0.00001801     -6896.7579406210 -6.29E-05

 *** WARNING in fm/cp_fm_elpa.F:521 :: Setting real_kernel for ELPA failed ***

    45 OT DIIS     0.80E-01    8.2     0.00001762     -6896.7580069125 -6.63E-05

 *** WARNING in fm/cp_fm_elpa.F:521 :: Setting real_kernel for ELPA failed ***

    46 OT DIIS     0.80E-01    8.4     0.00001759     -6896.7580456876 -3.88E-05

 *** WARNING in fm/cp_fm_elpa.F:521 :: Setting real_kernel for ELPA failed ***

    47 OT DIIS     0.80E-01    7.7     0.00001717     -6896.7580954133 -4.97E-05

 *** WARNING in fm/cp_fm_elpa.F:521 :: Setting real_kernel for ELPA failed ***

    48 OT DIIS     0.80E-01    8.3     0.00001660     -6896.7581381927 -4.28E-05

 *** WARNING in fm/cp_fm_elpa.F:521 :: Setting real_kernel for ELPA failed ***

    49 OT DIIS     0.80E-01    8.2     0.00001615     -6896.7582090626 -7.09E-05

 *** WARNING in fm/cp_fm_elpa.F:521 :: Setting real_kernel for ELPA failed ***

    50 OT DIIS     0.80E-01    8.4     0.00001609     -6896.7582363512 -2.73E-05

 *** WARNING in fm/cp_fm_elpa.F:521 :: Setting real_kernel for ELPA failed ***

    51 OT DIIS     0.80E-01    7.3     0.00001604     -6896.7583195212 -8.32E-05

 *** WARNING in fm/cp_fm_elpa.F:521 :: Setting real_kernel for ELPA failed ***

    52 OT DIIS     0.80E-01    9.2     0.00001631     -6896.7583799101 -6.04E-05

 *** WARNING in fm/cp_fm_elpa.F:521 :: Setting real_kernel for ELPA failed ***

    53 OT DIIS     0.80E-01    8.0     0.00001640     -6896.7584439160 -6.40E-05

 *** WARNING in fm/cp_fm_elpa.F:521 :: Setting real_kernel for ELPA failed ***

    54 OT DIIS     0.80E-01    8.2     0.00001674     -6896.7585075935 -6.37E-05

 *** WARNING in fm/cp_fm_elpa.F:521 :: Setting real_kernel for ELPA failed ***

    55 OT DIIS     0.80E-01    8.3     0.00001683     -6896.7585667219 -5.91E-05

 *** WARNING in fm/cp_fm_elpa.F:521 :: Setting real_kernel for ELPA failed ***

    56 OT DIIS     0.80E-01    7.8     0.00001662     -6896.7586181156 -5.14E-05

 *** WARNING in fm/cp_fm_elpa.F:521 :: Setting real_kernel for ELPA failed ***

    57 OT DIIS     0.80E-01    7.7     0.00001610     -6896.7586848190 -6.67E-05

 *** WARNING in fm/cp_fm_elpa.F:521 :: Setting real_kernel for ELPA failed ***

    58 OT DIIS     0.80E-01    8.5     0.00001593     -6896.7586895831 -4.76E-06

 *** WARNING in fm/cp_fm_elpa.F:521 :: Setting real_kernel for ELPA failed ***

    59 OT DIIS     0.80E-01    7.8     0.00001552     -6896.7587633318 -7.37E-05

 *** WARNING in fm/cp_fm_elpa.F:521 :: Setting real_kernel for ELPA failed ***

    60 OT DIIS     0.80E-01    8.7     0.00001546     -6896.7588037842 -4.05E-05

 *** WARNING in fm/cp_fm_elpa.F:521 :: Setting real_kernel for ELPA failed ***


 *** WARNING in fm/cp_fm_elpa.F:521 :: Setting real_kernel for ELPA failed ***

    61 OT DIIS     0.80E-01    8.0     0.00001528     -6896.7588432881 -3.95E-05

 *** WARNING in fm/cp_fm_elpa.F:521 :: Setting real_kernel for ELPA failed ***

    62 OT DIIS     0.80E-01    6.9     0.00001531     -6896.7588983595 -5.51E-05

 *** WARNING in fm/cp_fm_elpa.F:521 :: Setting real_kernel for ELPA failed ***

    63 OT DIIS     0.80E-01    8.4     0.00001539     -6896.7589516315 -5.33E-05

 *** WARNING in fm/cp_fm_elpa.F:521 :: Setting real_kernel for ELPA failed ***

    64 OT DIIS     0.80E-01    9.3     0.00001550     -6896.7590102414 -5.86E-05

 *** WARNING in fm/cp_fm_elpa.F:521 :: Setting real_kernel for ELPA failed ***

    65 OT DIIS     0.80E-01    7.8     0.00001538     -6896.7590780865 -6.78E-05

 *** WARNING in fm/cp_fm_elpa.F:521 :: Setting real_kernel for ELPA failed ***

    66 OT DIIS     0.80E-01    7.7     0.00001562     -6896.7590995180 -2.14E-05

 *** WARNING in fm/cp_fm_elpa.F:521 :: Setting real_kernel for ELPA failed ***

    67 OT DIIS     0.80E-01    8.5     0.00001540     -6896.7591828531 -8.33E-05

 *** WARNING in fm/cp_fm_elpa.F:521 :: Setting real_kernel for ELPA failed ***

    68 OT DIIS     0.80E-01    7.9     0.00001549     -6896.7592244874 -4.16E-05

 *** WARNING in fm/cp_fm_elpa.F:521 :: Setting real_kernel for ELPA failed ***

    69 OT DIIS     0.80E-01    8.3     0.00001523     -6896.7592452695 -2.08E-05

 *** WARNING in fm/cp_fm_elpa.F:521 :: Setting real_kernel for ELPA failed ***

    70 OT DIIS     0.80E-01    8.3     0.00001498     -6896.7592917190 -4.64E-05

 *** WARNING in fm/cp_fm_elpa.F:521 :: Setting real_kernel for ELPA failed ***

    71 OT DIIS     0.80E-01    8.4     0.00001476     -6896.7593297077 -3.80E-05

 *** WARNING in fm/cp_fm_elpa.F:521 :: Setting real_kernel for ELPA failed ***

    72 OT DIIS     0.80E-01    8.6     0.00001462     -6896.7593745533 -4.48E-05

 *** WARNING in fm/cp_fm_elpa.F:521 :: Setting real_kernel for ELPA failed ***

    73 OT DIIS     0.80E-01    7.6     0.00001443     -6896.7594231099 -4.86E-05

 *** WARNING in fm/cp_fm_elpa.F:521 :: Setting real_kernel for ELPA failed ***

    74 OT DIIS     0.80E-01    7.7     0.00001455     -6896.7594525455 -2.94E-05

 *** WARNING in fm/cp_fm_elpa.F:521 :: Setting real_kernel for ELPA failed ***

    75 OT DIIS     0.80E-01    8.3     0.00001449     -6896.7595259486 -7.34E-05

 *** WARNING in fm/cp_fm_elpa.F:521 :: Setting real_kernel for ELPA failed ***

    76 OT DIIS     0.80E-01    8.1     0.00001480     -6896.7595824105 -5.65E-05

 *** WARNING in fm/cp_fm_elpa.F:521 :: Setting real_kernel for ELPA failed ***

    77 OT DIIS     0.80E-01    8.0     0.00001494     -6896.7596087418 -2.63E-05

 *** WARNING in fm/cp_fm_elpa.F:521 :: Setting real_kernel for ELPA failed ***

    78 OT DIIS     0.80E-01    8.4     0.00001491     -6896.7596629783 -5.42E-05

 *** WARNING in fm/cp_fm_elpa.F:521 :: Setting real_kernel for ELPA failed ***

    79 OT DIIS     0.80E-01    8.0     0.00001479     -6896.7597007899 -3.78E-05

 *** WARNING in fm/cp_fm_elpa.F:521 :: Setting real_kernel for ELPA failed ***

    80 OT DIIS     0.80E-01    7.9     0.00001461     -6896.7597430725 -4.23E-05

 *** WARNING in fm/cp_fm_elpa.F:521 :: Setting real_kernel for ELPA failed ***


 *** WARNING in fm/cp_fm_elpa.F:521 :: Setting real_kernel for ELPA failed ***

    81 OT DIIS     0.80E-01    7.7     0.00001420     -6896.7597745782 -3.15E-05

 *** WARNING in fm/cp_fm_elpa.F:521 :: Setting real_kernel for ELPA failed ***

    82 OT DIIS     0.80E-01    7.8     0.00001409     -6896.7597976233 -2.30E-05

 *** WARNING in fm/cp_fm_elpa.F:521 :: Setting real_kernel for ELPA failed ***

    83 OT DIIS     0.80E-01    8.6     0.00001381     -6896.7598491507 -5.15E-05

 *** WARNING in fm/cp_fm_elpa.F:521 :: Setting real_kernel for ELPA failed ***

    84 OT DIIS     0.80E-01    7.8     0.00001389     -6896.7598972598 -4.81E-05

 *** WARNING in fm/cp_fm_elpa.F:521 :: Setting real_kernel for ELPA failed ***

    85 OT DIIS     0.80E-01    8.4     0.00001400     -6896.7599237129 -2.65E-05

 *** WARNING in fm/cp_fm_elpa.F:521 :: Setting real_kernel for ELPA failed ***

    86 OT DIIS     0.80E-01    8.0     0.00001404     -6896.7599766905 -5.30E-05

 *** WARNING in fm/cp_fm_elpa.F:521 :: Setting real_kernel for ELPA failed ***

    87 OT DIIS     0.80E-01    8.4     0.00001416     -6896.7600232227 -4.65E-05

 *** WARNING in fm/cp_fm_elpa.F:521 :: Setting real_kernel for ELPA failed ***

    88 OT DIIS     0.80E-01    8.6     0.00001428     -6896.7600754613 -5.22E-05

 *** WARNING in fm/cp_fm_elpa.F:521 :: Setting real_kernel for ELPA failed ***

    89 OT DIIS     0.80E-01    8.0     0.00001411     -6896.7601038136 -2.84E-05

 *** WARNING in fm/cp_fm_elpa.F:521 :: Setting real_kernel for ELPA failed ***

    90 OT DIIS     0.80E-01    7.9     0.00001413     -6896.7601358339 -3.20E-05

 *** WARNING in fm/cp_fm_elpa.F:521 :: Setting real_kernel for ELPA failed ***

    91 OT DIIS     0.80E-01    8.1     0.00001375     -6896.7601754085 -3.96E-05

 *** WARNING in fm/cp_fm_elpa.F:521 :: Setting real_kernel for ELPA failed ***

    92 OT DIIS     0.80E-01    8.3     0.00001366     -6896.7602182815 -4.29E-05

 *** WARNING in fm/cp_fm_elpa.F:521 :: Setting real_kernel for ELPA failed ***

    93 OT DIIS     0.80E-01    7.9     0.00001358     -6896.7602348398 -1.66E-05

 *** WARNING in fm/cp_fm_elpa.F:521 :: Setting real_kernel for ELPA failed ***

    94 OT DIIS     0.80E-01    7.8     0.00001339     -6896.7602735715 -3.87E-05

 *** WARNING in fm/cp_fm_elpa.F:521 :: Setting real_kernel for ELPA failed ***

    95 OT DIIS     0.80E-01    7.7     0.00001334     -6896.7603112900 -3.77E-05

 *** WARNING in fm/cp_fm_elpa.F:521 :: Setting real_kernel for ELPA failed ***

    96 OT DIIS     0.80E-01    8.4     0.00001340     -6896.7603584284 -4.71E-05

 *** WARNING in fm/cp_fm_elpa.F:521 :: Setting real_kernel for ELPA failed ***

    97 OT DIIS     0.80E-01    8.2     0.00001339     -6896.7603872079 -2.88E-05

 *** WARNING in fm/cp_fm_elpa.F:521 :: Setting real_kernel for ELPA failed ***

    98 OT DIIS     0.80E-01    8.4     0.00001360     -6896.7604360867 -4.89E-05

 *** WARNING in fm/cp_fm_elpa.F:521 :: Setting real_kernel for ELPA failed ***

    99 OT DIIS     0.80E-01    7.9     0.00001350     -6896.7604739087 -3.78E-05

 *** WARNING in fm/cp_fm_elpa.F:521 :: Setting real_kernel for ELPA failed ***

   100 OT DIIS     0.80E-01    8.0     0.00001355     -6896.7605216448 -4.77E-05

  Leaving inner SCF loop after reaching   100 steps.


  Electronic density on regular grids:      -2432.0000000044       -0.0000000044
  Core density on regular grids:             2431.9999999988       -0.0000000012
  Total charge density on r-space grids:       -0.0000000055
  Total charge density g-space grids:          -0.0000000055

  Overlap energy of the core charge distribution:               0.02328882044168
  Self energy of the core charge distribution:             -16017.19408509233290
  Core Hamiltonian energy:                                   4315.85043942961420
  Hartree energy:                                            6132.81087753735846
  Exchange-correlation energy:                              -1326.45959459120922
  Dispersion energy:                                           -1.79144774868057

  Total energy:                                             -6896.76052164480916

 *** WARNING in fm/cp_fm_elpa.F:521 :: Setting real_kernel for ELPA failed ***


  outer SCF iter =    2 RMS gradient =   0.14E-04 energy =      -6896.7605216448

  ----------------------------------- OT ---------------------------------------
  Minimizer      : DIIS                : direct inversion
                                         in the iterative subspace
                                         using   7 DIIS vectors
                                         safer DIIS on
  Preconditioner : FULL_SINGLE_INVERSE : inversion of 
                                         H + eS - 2*(Sc)(c^T*H*c+const)(Sc)^T
  Precond_solver : DEFAULT
  stepsize       :    0.08000000                  energy_gap     :    0.08000000
  eps_taylor     :   0.10000E-15                  max_taylor     :             4
  ----------------------------------- OT ---------------------------------------

  Step     Update method      Time    Convergence         Total energy    Change
  ------------------------------------------------------------------------------
     1 OT DIIS     0.80E-01   19.2     0.00001372     -6896.7605389897 -1.73E-05
     2 OT DIIS     0.80E-01    5.9     0.00003629     -6896.7605720192 -3.30E-05
     3 OT DIIS     0.80E-01    6.6     0.00001269     -6896.7606240624 -5.20E-05
     4 OT DIIS     0.80E-01    7.1     0.00001227     -6896.7606440287 -2.00E-05
     5 OT DIIS     0.80E-01    6.2     0.00001500     -6896.7609031825 -2.59E-04
     6 OT DIIS     0.80E-01    6.1     0.00004775     -6896.7623905753 -1.49E-03
     7 OT DIIS     0.80E-01    6.3     0.00004377     -6896.7623959185 -5.34E-06
     8 OT SD       0.80E-01    6.4     0.00004328     -6896.7623985392 -2.62E-06
     9 OT DIIS     0.80E-01    6.4     0.00010749     -6896.7619825792  4.16E-04
    10 OT DIIS     0.80E-01    6.6     0.00002179     -6896.7616538725  3.29E-04
    11 OT DIIS     0.80E-01    6.7     0.00002037     -6896.7621326722 -4.79E-04
    12 OT DIIS     0.80E-01    6.3     0.00001816     -6896.7622925696 -1.60E-04
    13 OT SD       0.80E-01    6.8     0.00001467     -6896.7625670458 -2.74E-04
    14 OT DIIS     0.80E-01    6.1     0.00005613     -6896.7625023432  6.47E-05
    15 OT DIIS     0.80E-01    6.6     0.00001029     -6896.7626362822 -1.34E-04
    16 OT SD       0.80E-01    6.5     0.00001109     -6896.7627511291 -1.15E-04
    17 OT DIIS     0.80E-01    7.0     0.00003328     -6896.7627520992 -9.70E-07
    18 OT DIIS     0.80E-01    7.0     0.00000982     -6896.7627952424 -4.31E-05
    19 OT DIIS     0.80E-01    7.1     0.00001047     -6896.7628739919 -7.87E-05
    20 OT DIIS     0.80E-01    6.3     0.00001079     -6896.7628995442 -2.56E-05

 *** WARNING in fm/cp_fm_elpa.F:521 :: Setting real_kernel for ELPA failed ***


 *** WARNING in fm/cp_fm_elpa.F:521 :: Setting real_kernel for ELPA failed ***

    21 OT DIIS     0.80E-01    7.7     0.00000990     -6896.7630754609 -1.76E-04

 *** WARNING in fm/cp_fm_elpa.F:521 :: Setting real_kernel for ELPA failed ***

    22 OT SD       0.80E-01    8.4     0.00001683     -6896.7635055990 -4.30E-04
    23 OT DIIS     0.80E-01    6.5     0.00007698     -6896.7633307963  1.75E-04
    24 OT DIIS     0.80E-01    5.8     0.00001087     -6896.7632359837  9.48E-05

 *** WARNING in fm/cp_fm_elpa.F:521 :: Setting real_kernel for ELPA failed ***

    25 OT DIIS     0.80E-01    8.2     0.00000989     -6896.7634853233 -2.49E-04

 *** WARNING in fm/cp_fm_elpa.F:521 :: Setting real_kernel for ELPA failed ***

    26 OT DIIS     0.80E-01    7.5     0.00001117     -6896.7637797454 -2.94E-04

 *** WARNING in fm/cp_fm_elpa.F:521 :: Setting real_kernel for ELPA failed ***

    27 OT SD       0.80E-01    8.4     0.00001173     -6896.7638989180 -1.19E-04

 *** WARNING in fm/cp_fm_elpa.F:521 :: Setting real_kernel for ELPA failed ***

    28 OT DIIS     0.80E-01    7.7     0.00003890     -6896.7638694352  2.95E-05

 *** WARNING in fm/cp_fm_elpa.F:521 :: Setting real_kernel for ELPA failed ***

    29 OT SD       0.80E-01    8.4     0.00001098     -6896.7640032245 -1.34E-04

 *** WARNING in fm/cp_fm_elpa.F:521 :: Setting real_kernel for ELPA failed ***

    30 OT DIIS     0.80E-01    8.8     0.00004134     -6896.7639606051  4.26E-05

 *** WARNING in fm/cp_fm_elpa.F:521 :: Setting real_kernel for ELPA failed ***

    31 OT DIIS     0.80E-01    8.9     0.00000903     -6896.7640694411 -1.09E-04

 *** WARNING in fm/cp_fm_elpa.F:521 :: Setting real_kernel for ELPA failed ***

    32 OT SD       0.80E-01    6.9     0.00000799     -6896.7641410032 -7.16E-05

 *** WARNING in fm/cp_fm_elpa.F:521 :: Setting real_kernel for ELPA failed ***

    33 OT DIIS     0.80E-01    7.8     0.00002281     -6896.7641442551 -3.25E-06

 *** WARNING in fm/cp_fm_elpa.F:521 :: Setting real_kernel for ELPA failed ***

    34 OT SD       0.80E-01    8.8     0.00000800     -6896.7643236581 -1.79E-04

 *** WARNING in fm/cp_fm_elpa.F:521 :: Setting real_kernel for ELPA failed ***

    35 OT DIIS     0.80E-01    9.0     0.00002444     -6896.7643215663  2.09E-06

 *** WARNING in fm/cp_fm_elpa.F:521 :: Setting real_kernel for ELPA failed ***

    36 OT DIIS     0.80E-01    7.3     0.00000784     -6896.7644460610 -1.24E-04

 *** WARNING in fm/cp_fm_elpa.F:521 :: Setting real_kernel for ELPA failed ***

    37 OT DIIS     0.80E-01    8.4     0.00001013     -6896.7646983788 -2.52E-04

 *** WARNING in fm/cp_fm_elpa.F:521 :: Setting real_kernel for ELPA failed ***

    38 OT SD       0.80E-01    8.5     0.00001051     -6896.7647596417 -6.13E-05

 *** WARNING in fm/cp_fm_elpa.F:521 :: Setting real_kernel for ELPA failed ***

    39 OT SD       0.80E-01    8.0     0.00002700     -6896.7647448718  1.48E-05

 *** WARNING in fm/cp_fm_elpa.F:521 :: Setting real_kernel for ELPA failed ***

    40 OT DIIS     0.80E-01    7.7     0.00011300     -6896.7642469521  4.98E-04

 *** WARNING in fm/cp_fm_elpa.F:521 :: Setting real_kernel for ELPA failed ***


 *** WARNING in fm/cp_fm_elpa.F:521 :: Setting real_kernel for ELPA failed ***

    41 OT SD       0.80E-01    8.7     0.00000669     -6896.7647774822 -5.31E-04

 *** WARNING in fm/cp_fm_elpa.F:521 :: Setting real_kernel for ELPA failed ***

    42 OT DIIS     0.80E-01    8.2     0.00001968     -6896.7647797352 -2.25E-06

 *** WARNING in fm/cp_fm_elpa.F:521 :: Setting real_kernel for ELPA failed ***

    43 OT SD       0.80E-01    8.6     0.00000611     -6896.7648202074 -4.05E-05

 *** WARNING in fm/cp_fm_elpa.F:521 :: Setting real_kernel for ELPA failed ***

    44 OT DIIS     0.80E-01    7.5     0.00001352     -6896.7648291920 -8.98E-06

 *** WARNING in fm/cp_fm_elpa.F:521 :: Setting real_kernel for ELPA failed ***

    45 OT DIIS     0.80E-01    8.0     0.00000610     -6896.7648568388 -2.76E-05

 *** WARNING in fm/cp_fm_elpa.F:521 :: Setting real_kernel for ELPA failed ***

    46 OT DIIS     0.80E-01    8.0     0.00000582     -6896.7649021756 -4.53E-05

 *** WARNING in fm/cp_fm_elpa.F:521 :: Setting real_kernel for ELPA failed ***

    47 OT DIIS     0.80E-01    8.6     0.00000633     -6896.7650136750 -1.11E-04

 *** WARNING in fm/cp_fm_elpa.F:521 :: Setting real_kernel for ELPA failed ***

    48 OT SD       0.80E-01    8.2     0.00000749     -6896.7651844626 -1.71E-04

 *** WARNING in fm/cp_fm_elpa.F:521 :: Setting real_kernel for ELPA failed ***

    49 OT DIIS     0.80E-01    8.6     0.00002163     -6896.7651771603  7.30E-06

 *** WARNING in fm/cp_fm_elpa.F:521 :: Setting real_kernel for ELPA failed ***

    50 OT DIIS     0.80E-01    8.4     0.00000624     -6896.7651987504 -2.16E-05

 *** WARNING in fm/cp_fm_elpa.F:521 :: Setting real_kernel for ELPA failed ***

    51 OT DIIS     0.80E-01    8.5     0.00000548     -6896.7652062356 -7.49E-06

 *** WARNING in fm/cp_fm_elpa.F:521 :: Setting real_kernel for ELPA failed ***

    52 OT SD       0.80E-01    8.3     0.00000941     -6896.7654100543 -2.04E-04

 *** WARNING in fm/cp_fm_elpa.F:521 :: Setting real_kernel for ELPA failed ***

    53 OT DIIS     0.80E-01    8.7     0.00002527     -6896.7653921793  1.79E-05

 *** WARNING in fm/cp_fm_elpa.F:521 :: Setting real_kernel for ELPA failed ***

    54 OT DIIS     0.80E-01    8.5     0.00000592     -6896.7653686841  2.35E-05

 *** WARNING in fm/cp_fm_elpa.F:521 :: Setting real_kernel for ELPA failed ***

    55 OT SD       0.80E-01    8.8     0.00000580     -6896.7655035419 -1.35E-04

 *** WARNING in fm/cp_fm_elpa.F:521 :: Setting real_kernel for ELPA failed ***

    56 OT DIIS     0.80E-01    8.0     0.00001829     -6896.7655009392  2.60E-06

 *** WARNING in fm/cp_fm_elpa.F:521 :: Setting real_kernel for ELPA failed ***

    57 OT DIIS     0.80E-01    7.9     0.00000526     -6896.7655719234 -7.10E-05

 *** WARNING in fm/cp_fm_elpa.F:521 :: Setting real_kernel for ELPA failed ***

    58 OT DIIS     0.80E-01    8.2     0.00000472     -6896.7655900946 -1.82E-05

 *** WARNING in fm/cp_fm_elpa.F:521 :: Setting real_kernel for ELPA failed ***

    59 OT SD       0.80E-01    8.1     0.00000526     -6896.7656657334 -7.56E-05

 *** WARNING in fm/cp_fm_elpa.F:521 :: Setting real_kernel for ELPA failed ***

    60 OT DIIS     0.80E-01    8.0     0.00001061     -6896.7656695633 -3.83E-06

 *** WARNING in fm/cp_fm_elpa.F:521 :: Setting real_kernel for ELPA failed ***


 *** WARNING in fm/cp_fm_elpa.F:521 :: Setting real_kernel for ELPA failed ***

    61 OT DIIS     0.80E-01    8.0     0.00000584     -6896.7656959935 -2.64E-05

 *** WARNING in fm/cp_fm_elpa.F:521 :: Setting real_kernel for ELPA failed ***

    62 OT SD       0.80E-01    7.5     0.00000488     -6896.7657266329 -3.06E-05

 *** WARNING in fm/cp_fm_elpa.F:521 :: Setting real_kernel for ELPA failed ***

    63 OT DIIS     0.80E-01    7.8     0.00001429     -6896.7657273520 -7.19E-07

 *** WARNING in fm/cp_fm_elpa.F:521 :: Setting real_kernel for ELPA failed ***

    64 OT DIIS     0.80E-01    8.6     0.00000429     -6896.7657621987 -3.48E-05

 *** WARNING in fm/cp_fm_elpa.F:521 :: Setting real_kernel for ELPA failed ***

    65 OT DIIS     0.80E-01    8.3     0.00000457     -6896.7658236416 -6.14E-05

 *** WARNING in fm/cp_fm_elpa.F:521 :: Setting real_kernel for ELPA failed ***

    66 OT SD       0.80E-01    8.5     0.00000452     -6896.7658725091 -4.89E-05

 *** WARNING in fm/cp_fm_elpa.F:521 :: Setting real_kernel for ELPA failed ***

    67 OT SD       0.80E-01    8.5     0.00000840     -6896.7658773143 -4.81E-06

 *** WARNING in fm/cp_fm_elpa.F:521 :: Setting real_kernel for ELPA failed ***

    68 OT DIIS     0.80E-01    8.1     0.00003447     -6896.7658382243  3.91E-05

 *** WARNING in fm/cp_fm_elpa.F:521 :: Setting real_kernel for ELPA failed ***

    69 OT SD       0.80E-01    7.8     0.00000430     -6896.7659275217 -8.93E-05

 *** WARNING in fm/cp_fm_elpa.F:521 :: Setting real_kernel for ELPA failed ***

    70 OT DIIS     0.80E-01    7.4     0.00000929     -6896.7659313791 -3.86E-06

 *** WARNING in fm/cp_fm_elpa.F:521 :: Setting real_kernel for ELPA failed ***

    71 OT DIIS     0.80E-01    7.7     0.00000408     -6896.7659757725 -4.44E-05

 *** WARNING in fm/cp_fm_elpa.F:521 :: Setting real_kernel for ELPA failed ***

    72 OT DIIS     0.80E-01    7.8     0.00000447     -6896.7660172634 -4.15E-05

 *** WARNING in fm/cp_fm_elpa.F:521 :: Setting real_kernel for ELPA failed ***

    73 OT SD       0.80E-01    8.4     0.00000445     -6896.7660383294 -2.11E-05

 *** WARNING in fm/cp_fm_elpa.F:521 :: Setting real_kernel for ELPA failed ***

    74 OT DIIS     0.80E-01    8.2     0.00001250     -6896.7660392368 -9.07E-07

 *** WARNING in fm/cp_fm_elpa.F:521 :: Setting real_kernel for ELPA failed ***

    75 OT DIIS     0.80E-01    7.4     0.00000411     -6896.7660815488 -4.23E-05

 *** WARNING in fm/cp_fm_elpa.F:521 :: Setting real_kernel for ELPA failed ***

    76 OT SD       0.80E-01    8.5     0.00000523     -6896.7661641016 -8.26E-05

 *** WARNING in fm/cp_fm_elpa.F:521 :: Setting real_kernel for ELPA failed ***

    77 OT SD       0.80E-01    8.1     0.00001150     -6896.7661646360 -5.34E-07

 *** WARNING in fm/cp_fm_elpa.F:521 :: Setting real_kernel for ELPA failed ***

    78 OT DIIS     0.80E-01    8.4     0.00004571     -6896.7660864696  7.82E-05

 *** WARNING in fm/cp_fm_elpa.F:521 :: Setting real_kernel for ELPA failed ***

    79 OT DIIS     0.80E-01    8.8     0.00000377     -6896.7661775615 -9.11E-05

 *** WARNING in fm/cp_fm_elpa.F:521 :: Setting real_kernel for ELPA failed ***

    80 OT SD       0.80E-01    8.6     0.00000418     -6896.7662257074 -4.81E-05

 *** WARNING in fm/cp_fm_elpa.F:521 :: Setting real_kernel for ELPA failed ***


 *** WARNING in fm/cp_fm_elpa.F:521 :: Setting real_kernel for ELPA failed ***

    81 OT DIIS     0.80E-01    7.6     0.00001021     -6896.7662277505 -2.04E-06

 *** WARNING in fm/cp_fm_elpa.F:521 :: Setting real_kernel for ELPA failed ***

    82 OT DIIS     0.80E-01    8.9     0.00000401     -6896.7663034241 -7.57E-05

 *** WARNING in fm/cp_fm_elpa.F:521 :: Setting real_kernel for ELPA failed ***

    83 OT SD       0.80E-01    7.9     0.00000672     -6896.7663778983 -7.45E-05

 *** WARNING in fm/cp_fm_elpa.F:521 :: Setting real_kernel for ELPA failed ***

    84 OT SD       0.80E-01    8.8     0.00001371     -6896.7663747388  3.16E-06

 *** WARNING in fm/cp_fm_elpa.F:521 :: Setting real_kernel for ELPA failed ***

    85 OT DIIS     0.80E-01    6.9     0.00004198     -6896.7662962001  7.85E-05

 *** WARNING in fm/cp_fm_elpa.F:521 :: Setting real_kernel for ELPA failed ***

    86 OT DIIS     0.80E-01    8.0     0.00000414     -6896.7663270062 -3.08E-05

 *** WARNING in fm/cp_fm_elpa.F:521 :: Setting real_kernel for ELPA failed ***

    87 OT SD       0.80E-01    8.5     0.00000378     -6896.7663727988 -4.58E-05

 *** WARNING in fm/cp_fm_elpa.F:521 :: Setting real_kernel for ELPA failed ***

    88 OT DIIS     0.80E-01    8.7     0.00001032     -6896.7663741476 -1.35E-06

 *** WARNING in fm/cp_fm_elpa.F:521 :: Setting real_kernel for ELPA failed ***

    89 OT DIIS     0.80E-01    7.4     0.00000340     -6896.7663768554 -2.71E-06

 *** WARNING in fm/cp_fm_elpa.F:521 :: Setting real_kernel for ELPA failed ***

    90 OT DIIS     0.80E-01    7.6     0.00000333     -6896.7663895976 -1.27E-05

 *** WARNING in fm/cp_fm_elpa.F:521 :: Setting real_kernel for ELPA failed ***

    91 OT DIIS     0.80E-01    7.5     0.00000334     -6896.7663943657 -4.77E-06

 *** WARNING in fm/cp_fm_elpa.F:521 :: Setting real_kernel for ELPA failed ***

    92 OT DIIS     0.80E-01    7.5     0.00000366     -6896.7664256478 -3.13E-05

 *** WARNING in fm/cp_fm_elpa.F:521 :: Setting real_kernel for ELPA failed ***

    93 OT DIIS     0.80E-01    8.6     0.00000346     -6896.7664587676 -3.31E-05

 *** WARNING in fm/cp_fm_elpa.F:521 :: Setting real_kernel for ELPA failed ***

    94 OT SD       0.80E-01    8.0     0.00000317     -6896.7664946243 -3.59E-05

 *** WARNING in fm/cp_fm_elpa.F:521 :: Setting real_kernel for ELPA failed ***

    95 OT DIIS     0.80E-01    7.1     0.00000567     -6896.7664976346 -3.01E-06

 *** WARNING in fm/cp_fm_elpa.F:521 :: Setting real_kernel for ELPA failed ***

    96 OT DIIS     0.80E-01    8.3     0.00000324     -6896.7665183492 -2.07E-05

 *** WARNING in fm/cp_fm_elpa.F:521 :: Setting real_kernel for ELPA failed ***

    97 OT DIIS     0.80E-01    7.9     0.00000325     -6896.7665552229 -3.69E-05

 *** WARNING in fm/cp_fm_elpa.F:521 :: Setting real_kernel for ELPA failed ***

    98 OT DIIS     0.80E-01    7.8     0.00000311     -6896.7665710559 -1.58E-05

 *** WARNING in fm/cp_fm_elpa.F:521 :: Setting real_kernel for ELPA failed ***

    99 OT DIIS     0.80E-01    7.5     0.00000327     -6896.7666135270 -4.25E-05

 *** WARNING in fm/cp_fm_elpa.F:521 :: Setting real_kernel for ELPA failed ***

   100 OT DIIS     0.80E-01    8.5     0.00000327     -6896.7666255369 -1.20E-05

  Leaving inner SCF loop after reaching   100 steps.


  Electronic density on regular grids:      -2432.0000000044       -0.0000000044
  Core density on regular grids:             2431.9999999988       -0.0000000012
  Total charge density on r-space grids:       -0.0000000055
  Total charge density g-space grids:          -0.0000000055

  Overlap energy of the core charge distribution:               0.02328882044168
  Self energy of the core charge distribution:             -16017.19408509233290
  Core Hamiltonian energy:                                   4315.81858972368263
  Hartree energy:                                            6132.82679580078275
  Exchange-correlation energy:                              -1326.44976704074998
  Dispersion energy:                                           -1.79144774868057

  Total energy:                                             -6896.76662553685765

 *** WARNING in fm/cp_fm_elpa.F:521 :: Setting real_kernel for ELPA failed ***


  outer SCF iter =    3 RMS gradient =   0.33E-05 energy =      -6896.7666255369

  ----------------------------------- OT ---------------------------------------
  Minimizer      : DIIS                : direct inversion
                                         in the iterative subspace
                                         using   7 DIIS vectors
                                         safer DIIS on
  Preconditioner : FULL_SINGLE_INVERSE : inversion of 
                                         H + eS - 2*(Sc)(c^T*H*c+const)(Sc)^T
  Precond_solver : DEFAULT
  stepsize       :    0.08000000                  energy_gap     :    0.08000000
  eps_taylor     :   0.10000E-15                  max_taylor     :             4
  ----------------------------------- OT ---------------------------------------

  Step     Update method      Time    Convergence         Total energy    Change
  ------------------------------------------------------------------------------
     1 OT DIIS     0.80E-01   20.8     0.00000366     -6896.7666332829 -7.75E-06
     2 OT DIIS     0.80E-01    6.4     0.00001244     -6896.7666320212  1.26E-06
     3 OT DIIS     0.80E-01    6.5     0.00000336     -6896.7666378016 -5.78E-06
     4 OT DIIS     0.80E-01    5.7     0.00000289     -6896.7666390415 -1.24E-06
     5 OT DIIS     0.80E-01    6.3     0.00000284     -6896.7666408364 -1.79E-06
     6 OT DIIS     0.80E-01    6.1     0.00000281     -6896.7666434179 -2.58E-06
     7 OT DIIS     0.80E-01    6.6     0.00000284     -6896.7666491797 -5.76E-06
     8 OT DIIS     0.80E-01    6.5     0.00000279     -6896.7666572713 -8.09E-06
     9 OT DIIS     0.80E-01    6.0     0.00000287     -6896.7666617512 -4.48E-06
    10 OT DIIS     0.80E-01    6.3     0.00000281     -6896.7666784122 -1.67E-05
    11 OT DIIS     0.80E-01    6.5     0.00000281     -6896.7666886340 -1.02E-05
    12 OT DIIS     0.80E-01    6.5     0.00000285     -6896.7666924756 -3.84E-06
    13 OT DIIS     0.80E-01    5.7     0.00000283     -6896.7666956129 -3.14E-06
    14 OT DIIS     0.80E-01    6.0     0.00000280     -6896.7667052154 -9.60E-06
    15 OT SD       0.80E-01    6.7     0.00000280     -6896.7667163624 -1.11E-05
    16 OT DIIS     0.80E-01    5.6     0.00000490     -6896.7667191984 -2.84E-06
    17 OT DIIS     0.80E-01    6.7     0.00000282     -6896.7667302172 -1.10E-05
    18 OT SD       0.80E-01    6.3     0.00000277     -6896.7667365598 -6.34E-06
    19 OT DIIS     0.80E-01    7.7     0.00000489     -6896.7667393354 -2.78E-06
    20 OT DIIS     0.80E-01    5.6     0.00000290     -6896.7667589123 -1.96E-05

 *** WARNING in fm/cp_fm_elpa.F:521 :: Setting real_kernel for ELPA failed ***

    21 OT DIIS     0.80E-01    6.7     0.00000283     -6896.7667589650 -5.27E-08
    22 OT SD       0.80E-01    5.7     0.00000300     -6896.7668076812 -4.87E-05
    23 OT SD       0.80E-01    7.0     0.00000567     -6896.7668099535 -2.27E-06
    24 OT DIIS     0.80E-01    7.5     0.00002530     -6896.7667895987  2.04E-05
    25 OT SD       0.80E-01    7.5     0.00000285     -6896.7668435936 -5.40E-05
    26 OT DIIS     0.80E-01    6.6     0.00000560     -6896.7668458181 -2.22E-06
    27 OT DIIS     0.80E-01    7.2     0.00000281     -6896.7668660770 -2.03E-05
    28 OT DIIS     0.80E-01    6.0     0.00000458     -6896.7669479968 -8.19E-05
    29 OT SD       0.80E-01    6.8     0.00000530     -6896.7669692367 -2.12E-05
    30 OT SD       0.80E-01    7.7     0.00001039     -6896.7669681174  1.12E-06
    31 OT DIIS     0.80E-01    7.6     0.00003951     -6896.7669091161  5.90E-05
    32 OT DIIS     0.80E-01    6.4     0.00000284     -6896.7668961836  1.29E-05
    33 OT DIIS     0.80E-01    6.7     0.00000266     -6896.7669317171 -3.55E-05
    34 OT SD       0.80E-01    6.3     0.00000259     -6896.7669410873 -9.37E-06
    35 OT DIIS     0.80E-01    7.5     0.00000459     -6896.7669433783 -2.29E-06
    36 OT DIIS     0.80E-01    7.3     0.00000253     -6896.7669445369 -1.16E-06
    37 OT DIIS     0.80E-01    6.7     0.00000248     -6896.7669501651 -5.63E-06
    38 OT DIIS     0.80E-01    6.5     0.00000243     -6896.7669550412 -4.88E-06
    39 OT DIIS     0.80E-01    6.9     0.00000260     -6896.7669676125 -1.26E-05

 *** WARNING in fm/cp_fm_elpa.F:521 :: Setting real_kernel for ELPA failed ***

    40 OT DIIS     0.80E-01    9.1     0.00000267     -6896.7669916533 -2.40E-05

 *** WARNING in fm/cp_fm_elpa.F:521 :: Setting real_kernel for ELPA failed ***


 *** WARNING in fm/cp_fm_elpa.F:521 :: Setting real_kernel for ELPA failed ***

    41 OT DIIS     0.80E-01    8.2     0.00000257     -6896.7670032466 -1.16E-05

 *** WARNING in fm/cp_fm_elpa.F:521 :: Setting real_kernel for ELPA failed ***

    42 OT DIIS     0.80E-01    7.3     0.00000275     -6896.7670239811 -2.07E-05

 *** WARNING in fm/cp_fm_elpa.F:521 :: Setting real_kernel for ELPA failed ***

    43 OT SD       0.80E-01    8.3     0.00000263     -6896.7670397747 -1.58E-05

 *** WARNING in fm/cp_fm_elpa.F:521 :: Setting real_kernel for ELPA failed ***

    44 OT DIIS     0.80E-01    8.6     0.00000630     -6896.7670410057 -1.23E-06

 *** WARNING in fm/cp_fm_elpa.F:521 :: Setting real_kernel for ELPA failed ***

    45 OT DIIS     0.80E-01    8.0     0.00000263     -6896.7670553038 -1.43E-05

 *** WARNING in fm/cp_fm_elpa.F:521 :: Setting real_kernel for ELPA failed ***

    46 OT DIIS     0.80E-01    7.8     0.00000279     -6896.7670662145 -1.09E-05

 *** WARNING in fm/cp_fm_elpa.F:521 :: Setting real_kernel for ELPA failed ***

    47 OT SD       0.80E-01    7.4     0.00000319     -6896.7671000921 -3.39E-05

 *** WARNING in fm/cp_fm_elpa.F:521 :: Setting real_kernel for ELPA failed ***

    48 OT SD       0.80E-01    7.0     0.00000960     -6896.7670990745  1.02E-06

 *** WARNING in fm/cp_fm_elpa.F:521 :: Setting real_kernel for ELPA failed ***

    49 OT DIIS     0.80E-01    8.1     0.00004929     -6896.7670141900  8.49E-05

 *** WARNING in fm/cp_fm_elpa.F:521 :: Setting real_kernel for ELPA failed ***

    50 OT SD       0.80E-01    7.7     0.00000371     -6896.7671598738 -1.46E-04

 *** WARNING in fm/cp_fm_elpa.F:521 :: Setting real_kernel for ELPA failed ***

    51 OT DIIS     0.80E-01    8.4     0.00001030     -6896.7671579882  1.89E-06

 *** WARNING in fm/cp_fm_elpa.F:521 :: Setting real_kernel for ELPA failed ***

    52 OT DIIS     0.80E-01    7.5     0.00000296     -6896.7671549209  3.07E-06

 *** WARNING in fm/cp_fm_elpa.F:521 :: Setting real_kernel for ELPA failed ***

    53 OT DIIS     0.80E-01    7.8     0.00000283     -6896.7671779697 -2.30E-05

 *** WARNING in fm/cp_fm_elpa.F:521 :: Setting real_kernel for ELPA failed ***

    54 OT SD       0.80E-01    8.0     0.00000337     -6896.7671889717 -1.10E-05

 *** WARNING in fm/cp_fm_elpa.F:521 :: Setting real_kernel for ELPA failed ***

    55 OT DIIS     0.80E-01    7.7     0.00001541     -6896.7671831633  5.81E-06

 *** WARNING in fm/cp_fm_elpa.F:521 :: Setting real_kernel for ELPA failed ***

    56 OT DIIS     0.80E-01    9.1     0.00000249     -6896.7671997238 -1.66E-05

 *** WARNING in fm/cp_fm_elpa.F:521 :: Setting real_kernel for ELPA failed ***

    57 OT SD       0.80E-01    7.5     0.00000240     -6896.7672166001 -1.69E-05

 *** WARNING in fm/cp_fm_elpa.F:521 :: Setting real_kernel for ELPA failed ***

    58 OT DIIS     0.80E-01    7.8     0.00000736     -6896.7672167656 -1.66E-07

 *** WARNING in fm/cp_fm_elpa.F:521 :: Setting real_kernel for ELPA failed ***

    59 OT DIIS     0.80E-01    7.8     0.00000239     -6896.7672422957 -2.55E-05

 *** WARNING in fm/cp_fm_elpa.F:521 :: Setting real_kernel for ELPA failed ***

    60 OT SD       0.80E-01    7.0     0.00000427     -6896.7672992211 -5.69E-05

 *** WARNING in fm/cp_fm_elpa.F:521 :: Setting real_kernel for ELPA failed ***


 *** WARNING in fm/cp_fm_elpa.F:521 :: Setting real_kernel for ELPA failed ***

    61 OT SD       0.80E-01    8.0     0.00000811     -6896.7672983065  9.15E-07

 *** WARNING in fm/cp_fm_elpa.F:521 :: Setting real_kernel for ELPA failed ***

    62 OT DIIS     0.80E-01    8.4     0.00002900     -6896.7672653035  3.30E-05

 *** WARNING in fm/cp_fm_elpa.F:521 :: Setting real_kernel for ELPA failed ***

    63 OT DIIS     0.80E-01    7.8     0.00000218     -6896.7672735969 -8.29E-06

 *** WARNING in fm/cp_fm_elpa.F:521 :: Setting real_kernel for ELPA failed ***

    64 OT SD       0.80E-01    8.1     0.00000253     -6896.7673171005 -4.35E-05

 *** WARNING in fm/cp_fm_elpa.F:521 :: Setting real_kernel for ELPA failed ***

    65 OT DIIS     0.80E-01    8.5     0.00000778     -6896.7673166375  4.63E-07

 *** WARNING in fm/cp_fm_elpa.F:521 :: Setting real_kernel for ELPA failed ***

    66 OT DIIS     0.80E-01    7.9     0.00000197     -6896.7673194582 -2.82E-06

 *** WARNING in fm/cp_fm_elpa.F:521 :: Setting real_kernel for ELPA failed ***

    67 OT SD       0.80E-01    8.8     0.00000231     -6896.7673514675 -3.20E-05

 *** WARNING in fm/cp_fm_elpa.F:521 :: Setting real_kernel for ELPA failed ***

    68 OT DIIS     0.80E-01    8.1     0.00000611     -6896.7673516267 -1.59E-07

 *** WARNING in fm/cp_fm_elpa.F:521 :: Setting real_kernel for ELPA failed ***

    69 OT DIIS     0.80E-01    8.3     0.00000270     -6896.7673522705 -6.44E-07

 *** WARNING in fm/cp_fm_elpa.F:521 :: Setting real_kernel for ELPA failed ***

    70 OT DIIS     0.80E-01    6.8     0.00000184     -6896.7673718862 -1.96E-05

 *** WARNING in fm/cp_fm_elpa.F:521 :: Setting real_kernel for ELPA failed ***

    71 OT SD       0.80E-01    7.9     0.00000335     -6896.7674058339 -3.39E-05

 *** WARNING in fm/cp_fm_elpa.F:521 :: Setting real_kernel for ELPA failed ***

    72 OT SD       0.80E-01    7.9     0.00000874     -6896.7674043361  1.50E-06

 *** WARNING in fm/cp_fm_elpa.F:521 :: Setting real_kernel for ELPA failed ***

    73 OT DIIS     0.80E-01    8.6     0.00004379     -6896.7673383325  6.60E-05

 *** WARNING in fm/cp_fm_elpa.F:521 :: Setting real_kernel for ELPA failed ***

    74 OT SD       0.80E-01    8.0     0.00000214     -6896.7673930413 -5.47E-05

 *** WARNING in fm/cp_fm_elpa.F:521 :: Setting real_kernel for ELPA failed ***

    75 OT DIIS     0.80E-01    8.0     0.00000740     -6896.7673924438  5.97E-07

 *** WARNING in fm/cp_fm_elpa.F:521 :: Setting real_kernel for ELPA failed ***

    76 OT DIIS     0.80E-01    8.2     0.00000165     -6896.7673933914 -9.48E-07

 *** WARNING in fm/cp_fm_elpa.F:521 :: Setting real_kernel for ELPA failed ***

    77 OT SD       0.80E-01    7.8     0.00000175     -6896.7673979914 -4.60E-06

 *** WARNING in fm/cp_fm_elpa.F:521 :: Setting real_kernel for ELPA failed ***

    78 OT DIIS     0.80E-01    7.4     0.00000444     -6896.7673986204 -6.29E-07

 *** WARNING in fm/cp_fm_elpa.F:521 :: Setting real_kernel for ELPA failed ***

    79 OT DIIS     0.80E-01    7.7     0.00000165     -6896.7674018613 -3.24E-06

 *** WARNING in fm/cp_fm_elpa.F:521 :: Setting real_kernel for ELPA failed ***

    80 OT DIIS     0.80E-01    8.0     0.00000164     -6896.7674049653 -3.10E-06

 *** WARNING in fm/cp_fm_elpa.F:521 :: Setting real_kernel for ELPA failed ***


 *** WARNING in fm/cp_fm_elpa.F:521 :: Setting real_kernel for ELPA failed ***

    81 OT DIIS     0.80E-01    8.2     0.00000183     -6896.7674259916 -2.10E-05

 *** WARNING in fm/cp_fm_elpa.F:521 :: Setting real_kernel for ELPA failed ***

    82 OT DIIS     0.80E-01    9.1     0.00000188     -6896.7674265604 -5.69E-07

 *** WARNING in fm/cp_fm_elpa.F:521 :: Setting real_kernel for ELPA failed ***

    83 OT SD       0.80E-01    6.6     0.00000196     -6896.7674499325 -2.34E-05

 *** WARNING in fm/cp_fm_elpa.F:521 :: Setting real_kernel for ELPA failed ***

    84 OT SD       0.80E-01    8.2     0.00000661     -6896.7674494503  4.82E-07

 *** WARNING in fm/cp_fm_elpa.F:521 :: Setting real_kernel for ELPA failed ***

    85 OT DIIS     0.80E-01    8.3     0.00003741     -6896.7674028408  4.66E-05

 *** WARNING in fm/cp_fm_elpa.F:521 :: Setting real_kernel for ELPA failed ***

    86 OT DIIS     0.80E-01    8.0     0.00000164     -6896.7674689196 -6.61E-05

 *** WARNING in fm/cp_fm_elpa.F:521 :: Setting real_kernel for ELPA failed ***

    87 OT DIIS     0.80E-01    7.6     0.00000152     -6896.7674763373 -7.42E-06

 *** WARNING in fm/cp_fm_elpa.F:521 :: Setting real_kernel for ELPA failed ***

    88 OT DIIS     0.80E-01    8.7     0.00000158     -6896.7674803852 -4.05E-06

 *** WARNING in fm/cp_fm_elpa.F:521 :: Setting real_kernel for ELPA failed ***

    89 OT DIIS     0.80E-01    8.4     0.00000165     -6896.7674877789 -7.39E-06

 *** WARNING in fm/cp_fm_elpa.F:521 :: Setting real_kernel for ELPA failed ***

    90 OT SD       0.80E-01    8.6     0.00000151     -6896.7674983209 -1.05E-05

 *** WARNING in fm/cp_fm_elpa.F:521 :: Setting real_kernel for ELPA failed ***

    91 OT DIIS     0.80E-01    8.6     0.00000327     -6896.7674988606 -5.40E-07

 *** WARNING in fm/cp_fm_elpa.F:521 :: Setting real_kernel for ELPA failed ***

    92 OT DIIS     0.80E-01    7.9     0.00000147     -6896.7675063408 -7.48E-06

 *** WARNING in fm/cp_fm_elpa.F:521 :: Setting real_kernel for ELPA failed ***

    93 OT DIIS     0.80E-01    8.3     0.00000140     -6896.7675106697 -4.33E-06

 *** WARNING in fm/cp_fm_elpa.F:521 :: Setting real_kernel for ELPA failed ***

    94 OT DIIS     0.80E-01    8.7     0.00000135     -6896.7675140537 -3.38E-06

 *** WARNING in fm/cp_fm_elpa.F:521 :: Setting real_kernel for ELPA failed ***

    95 OT DIIS     0.80E-01    8.2     0.00000143     -6896.7675181767 -4.12E-06

 *** WARNING in fm/cp_fm_elpa.F:521 :: Setting real_kernel for ELPA failed ***

    96 OT DIIS     0.80E-01    8.4     0.00000135     -6896.7675281047 -9.93E-06

 *** WARNING in fm/cp_fm_elpa.F:521 :: Setting real_kernel for ELPA failed ***

    97 OT SD       0.80E-01    8.3     0.00000137     -6896.7675347329 -6.63E-06

 *** WARNING in fm/cp_fm_elpa.F:521 :: Setting real_kernel for ELPA failed ***

    98 OT DIIS     0.80E-01    7.7     0.00000266     -6896.7675353060 -5.73E-07

 *** WARNING in fm/cp_fm_elpa.F:521 :: Setting real_kernel for ELPA failed ***

    99 OT DIIS     0.80E-01    8.1     0.00000140     -6896.7675395808 -4.27E-06

 *** WARNING in fm/cp_fm_elpa.F:521 :: Setting real_kernel for ELPA failed ***

   100 OT DIIS     0.80E-01    8.4     0.00000135     -6896.7675442081 -4.63E-06

  Leaving inner SCF loop after reaching   100 steps.


  Electronic density on regular grids:      -2432.0000000044       -0.0000000044
  Core density on regular grids:             2431.9999999988       -0.0000000012
  Total charge density on r-space grids:       -0.0000000055
  Total charge density g-space grids:          -0.0000000055

  Overlap energy of the core charge distribution:               0.02328882044168
  Self energy of the core charge distribution:             -16017.19408509233290
  Core Hamiltonian energy:                                   4315.81844630105115
  Hartree energy:                                            6132.82736437878975
  Exchange-correlation energy:                              -1326.45111086734596
  Dispersion energy:                                           -1.79144774868057

  Total energy:                                             -6896.76754420807720

 *** WARNING in fm/cp_fm_elpa.F:521 :: Setting real_kernel for ELPA failed ***


  outer SCF iter =    4 RMS gradient =   0.13E-05 energy =      -6896.7675442081

  ----------------------------------- OT ---------------------------------------
  Minimizer      : DIIS                : direct inversion
                                         in the iterative subspace
                                         using   7 DIIS vectors
                                         safer DIIS on
  Preconditioner : FULL_SINGLE_INVERSE : inversion of 
                                         H + eS - 2*(Sc)(c^T*H*c+const)(Sc)^T
  Precond_solver : DEFAULT
  stepsize       :    0.08000000                  energy_gap     :    0.08000000
  eps_taylor     :   0.10000E-15                  max_taylor     :             4
  ----------------------------------- OT ---------------------------------------

  Step     Update method      Time    Convergence         Total energy    Change
  ------------------------------------------------------------------------------
     1 OT DIIS     0.80E-01   19.2     0.00000129     -6896.7675455230 -1.31E-06
     2 OT DIIS     0.80E-01    6.4     0.00000180     -6896.7675462262 -7.03E-07
     3 OT DIIS     0.80E-01    6.0     0.00000128     -6896.7675464266 -2.00E-07
     4 OT DIIS     0.80E-01    5.0     0.00000127     -6896.7675466982 -2.72E-07
     5 OT DIIS     0.80E-01    6.0     0.00000127     -6896.7675473355 -6.37E-07
     6 OT DIIS     0.80E-01    6.3     0.00000128     -6896.7675498252 -2.49E-06
     7 OT DIIS     0.80E-01    7.3     0.00000127     -6896.7675555372 -5.71E-06
[...]
 flops   282 x    64 x   279       49996205752320     100.0%      0.0%      0.0%     
 flops   273 x    64 x   282       58705222238208     100.0%      0.0%      0.0%     
 flops   282 x    64 x   273       58705222238208     100.0%      0.0%      0.0%     
 flops    14 x    13 x    64       59252448632832     100.0%      0.0%      0.0%     
 flops    13 x    14 x    64       59391476178944     100.0%      0.0%      0.0%     
 flops   279 x    64 x   279       61830414028800     100.0%      0.0%      0.0%     
 flops   273 x    64 x   279       72600873246720     100.0%      0.0%      0.0%     
 flops   279 x    64 x   273       72600873246720     100.0%      0.0%      0.0%     
 flops     9 x    32 x    13       83695151854080     100.0%      0.0%      0.0%     
 flops    13 x    32 x     9       83695151854080     100.0%      0.0%      0.0%     
 flops   273 x    64 x   273       85247476973568     100.0%      0.0%      0.0%     
 flops    14 x    32 x    14      102363214643200     100.0%      0.0%      0.0%     
 flops    13 x    13 x    64      114036719407104     100.0%      0.0%      0.0%     
 flops   274 x    64 x    64      130172036579328     100.0%      0.0%      0.0%     
 flops    64 x    64 x   282      143321481609216     100.0%      0.0%      0.0%     
 flops    64 x    64 x   279      177245981245440     100.0%      0.0%      0.0%     
 flops   282 x    64 x    64      178630239977472     100.0%      0.0%      0.0%     
 flops    64 x    64 x   273      208121087655936     100.0%      0.0%      0.0%     
 flops   279 x    64 x    64      220912397844480     100.0%      0.0%      0.0%     
 flops    64 x    64 x    64      244201103032320     100.0%      0.0%      0.0%     
 flops   273 x    64 x    64      259393912307712     100.0%      0.0%      0.0%     
 flops    14 x    32 x    13      295861978071296     100.0%      0.0%      0.0%     
 flops    13 x    32 x    14      295861978071296     100.0%      0.0%      0.0%     
 flops    13 x    32 x    13      557043463738112     100.0%      0.0%      0.0%     
 flops inhomo. stacks             311012187360768     100.0%      0.0%      0.0%
 flops total                         5.199674E+15     100.0%      0.0%      0.0%
 flops max/rank                     25.197617E+12     100.0%      0.0%      0.0%
 matmuls inhomo. stacks                  74622762     100.0%      0.0%      0.0%
 matmuls total                       158364268922     100.0%      0.0%      0.0%
 number of processed stacks            4134707208     100.0%      0.0%      0.0%
 average stack size                                    38.3       0.0       0.0
 marketing flops                     6.360519E+15
 -------------------------------------------------------------------------------
 # multiplications                         316005
 max memory usage/rank             435.814400E+06
 # max total images/rank                        1
 # max 3D layers                                1
 # MPI messages exchanged              3481111080
 MPI messages size (bytes):
  total size                       415.507853E+12
  min size                           0.000000E+00
  max size                         636.192000E+03
  average size                     119.360703E+03
 MPI breakdown and total messages size (bytes):
             size <=      128             4768092                        0
       128 < size <=     8192                   0                        0
      8192 < size <=    32768          1319773036           43244930760704
     32768 < size <=   131072           350540816           17736540487680
    131072 < size <=  4194304          1806029136          364807222171136
   4194304 < size <= 16777216                   0                        0
  16777216 < size                               0                        0
 -------------------------------------------------------------------------------
 -                                                                             -
 -                      DBCSR MESSAGE PASSING PERFORMANCE                      -
 -                                                                             -
 -------------------------------------------------------------------------------
 ROUTINE             CALLS      AVE VOLUME [Bytes]
 MP_Bcast               94                     12.
 MP_Allreduce      1512240                      8.
 MP_Alltoall        985071                 114817.
 MP_ISend         22751184                  70251.
 MP_IRecv         22751184                  69513.
 -------------------------------------------------------------------------------

 -------------------------------------------------------------------------------
 -                                                                             -
 -                                GRID STATISTICS                              -
 -                                                                             -
 -------------------------------------------------------------------------------
 LP    KERNEL             BACKEND                              COUNT     PERCENT
 3     collocate general  CPU                             1883630555      14.96%
 3     integrate general  CPU                             1860342234      14.78%
 2     collocate general  CPU                              198835785       1.58%
 2     integrate general  CPU                              196083205       1.56%
 5     integrate general  CPU                               58784070       0.47%
 0     collocate general  CPU                               27209196       0.22%
 1     integrate general  CPU                               27209196       0.22%
 4     collocate general  CPU                             4185299348      33.24%
 4     integrate general  CPU                             4152556179      32.98%
 -------------------------------------------------------------------------------

 MEMORY| Estimated peak process memory [MiB]                                 416

 -------------------------------------------------------------------------------
 -                                                                             -
 -                         MESSAGE PASSING PERFORMANCE                         -
 -                                                                             -
 -------------------------------------------------------------------------------

 ROUTINE             CALLS      AVE VOLUME [Bytes]
 MP_Group                4
 MP_Bcast           343490                   3650.
 MP_Allreduce      1105664                    406.
 MP_Sync            191050
 MP_Alltoall        466802                6455258.
 MP_SendRecv       9972302                  21376.
 MP_ISendRecv      9972302                  21376.
 MP_Wait          11616870
 MP_ISend          4421492                 126424.
 MP_IRecv          4421492                 126424.
 -------------------------------------------------------------------------------


 -------------------------------------------------------------------------------
 -                                                                             -
 -                           R E F E R E N C E S                               -
 -                                                                             -
 -------------------------------------------------------------------------------
 
 CP2K version 2025.2 (Development Version), the CP2K developers group (2025).
 CP2K is freely available from https://www.cp2k.org/ .
 
 T. D. Kuehne, M. Iannuzzi, M. Del Ben, V. V. Rybkin, P. Seewald, F. Stein, T. 
 Laino, R. Z. Khaliullin, O. Schuett, F. Schiffmann, D. Golze, J. Wilhelm, S. 
 Chulkov, M. H. Bani-Hashemian, V. Weber, U. Borstnik, M. Taillefumier, A. S. 
 Jakobovits, A. Lazzaro, H. Pabst, T. Mueller, R. Schade, M. Guidon, S. 
 Andermatt, N. Holmberg, G. K. Schenter, A. Hehn, A. Bussy, F. Belleflamme, G. 
 Tabacchi, A. Gloess, M. Lass, I. Bethune, C. J. Mundy, C. Plessl, M. Watkins, 
 J. VandeVondele, M. Krack, J. Hutter.
 J. Chem. Phys. 152, 194103 (2020).
 CP2K: An electronic structure and molecular dynamics software package - 
 Quickstep: Efficient and accurate electronic structure calculations.
 https://doi.org/10.1063/5.0007045

 E. Caldeweyher, J. M. Mewes, S. Ehlert, S. Grimme.
 Phys. Chem. Chem. Phys. 22, 8499-8512 (2020).
 Extension and evaluation of the D4 London-dispersion model for periodic 
 systems.
 https://doi.org/10.1039/d0cp00502a

 E. Caldeweyher, S. Ehlert, A. Hansen, H. Neugebauer, S. Spicher, C. Bannwarth, 
 S. Grimme.
 J. Chem. Phys. 150, 154122 (2019).
 A generally applicable atomic-charge dependent London dispersion correction.
 https://doi.org/10.1063/1.5090222

 E. Caldeweyher, C. Bannwarth, S. Grimme.
 J. Chem. Phys. 147, 034112 (2017).
 Extension of the D3 dispersion coefficient model.
 https://doi.org/10.1063/1.4993215

 O. Schuett, P. Messmer, J. Hutter, J. VandeVondele.
 Electronic Structure Calculations on Graphics Processing Units, 173-190 (2016).
 GPU-Accelerated Sparse Matrix-Matrix Multiplication for Linear Scaling Density 
 Functional Theory.
 https://doi.org/10.1002/9781118670712.ch8

 J. Hutter, M. Iannuzzi, F. Schiffmann, J. VandeVondele.
 WIREs Comput Mol Sci. 4, 15-25 (2014).
 CP2K: atomistic simulations of condensed matter systems.
 https://doi.org/10.1002/wcms.1159

 U. Borstnik, J. VandeVondele, V. Weber, J. Hutter.
 Parallel Comput. 40, 47-58 (2014).
 Sparse matrix multiplication: The distributed block-compressed sparse row 
 library.
 https://doi.org/10.1016/j.parco.2014.03.012

 A. Marek, V. Blum, R. Johanni, V. Havu, B. Lang, T. Auckenthaler, A. Heinecke, 
 H. Bungartz, H. Lederer.
 J. Phys. Condens. Matter 26, 213201 (2014).
 The ELPA library: scalable parallel eigenvalue solutions for electronic 
 structure theory and computational science.
 https://doi.org/10.1088/0953-8984/26/21/213201

 J. VandeVondele, J. Hutter.
 J. Chem. Phys. 127, 114105 (2007).
 Gaussian basis sets for accurate calculations on molecular systems in gas and 
 condensed phases.
 https://doi.org/10.1063/1.2770708

 T. D. Khne, M. Krack, F. R. Mohamed, M. Parrinello.
 Phys. Rev. Lett. 98, 066401 (2007).
 Efficient and accurate Car-Parrinello-like approach to Born-Oppenheimer 
 molecular dynamics.
 https://doi.org/10.1103/PhysRevLett.98.066401

 J. VandeVondele, M. Krack, F. Mohamed, M. Parrinello, T. Chassaing, J. Hutter.
 Comput. Phys. Commun. 167, 103-128 (2005).
 QUICKSTEP: Fast and accurate density functional calculations using a mixed 
 Gaussian and plane waves approach.
 https://doi.org/10.1016/j.cpc.2004.12.014

 M. Krack.
 Theor. Chem. Acc. 114, 145-152 (2005).
 Pseudopotentials for H to Kr optimized for gradient-corrected 
 exchange-correlation functionals.
 https://doi.org/10.1007/s00214-005-0655-y

 M. Frigo, S. G. Johnson.
 Proc. IEEE 93, 216-231 (2005).
 The design and implementation of FFTW3.
 https://doi.org/10.1109/JPROC.2004.840301

 J. Kolafa.
 J. Comput. Chem. 25, 335-342 (2004).
 Time-reversible always stable predictor-corrector method for molecular dynamics 
 of polarizable molecules.
 https://doi.org/10.1002/jcc.10385

 J. VandeVondele, J. Hutter.
 J. Chem. Phys. 118, 4365-4369 (2003).
 An efficient orbital transformation method for electronic structure 
 calculations.
 https://doi.org/10.1063/1.1543154

 C. Hartwigsen, S. Goedecker, J. Hutter.
 Phys. Rev. B 58, 3641-3662 (1998).
 Relativistic separable dual-space Gaussian pseudopotentials from H to Rn.
 https://doi.org/10.1103/PhysRevB.58.3641

 G. Lippert, J. Hutter, M. Parrinello.
 Mol. Phys. 92, 477-487 (1997).
 A hybrid Gaussian and plane wave density functional scheme.
 https://doi.org/10.1080/002689797170220

 S. Goedecker, M. Teter, J. Hutter.
 Phys. Rev. B 54, 1703-1710 (1996).
 Separable dual-space Gaussian pseudopotentials.
 https://doi.org/10.1103/PhysRevB.54.1703

 J. P. Perdew, K. Burke, M. Ernzerhof.
 Phys. Rev. Lett. 77, 3865-3868 (1996).
 Generalized gradient approximation made simple.
 https://doi.org/10.1103/PhysRevLett.77.3865

 R. H. Byrd, P. H. Lu, J. Nocedal, C. Y. Zhu.
 SIAM J. Sci. Comput. 16, 1190-1208 (1995).
 A Limited Memory Algorithm for Bound Constrained Optimization.
 https://doi.org/10.1137/0916069


 -------------------------------------------------------------------------------
 -                                                                             -
 -                                T I M I N G                                  -
 -                                                                             -
 -------------------------------------------------------------------------------
 SUBROUTINE                       CALLS  ASD         SELF TIME        TOTAL TIME
                                MAXIMUM       AVERAGE  MAXIMUM  AVERAGE  MAXIMUM
 CP2K                                 1  1.0      0.3      0.3 128395.1 128395.1
 cp_geo_opt                           1  2.0      0.0      0.0 128394.2 128394.2
 geoopt_lbfgs                         1  3.0      0.1      0.2 128394.2 128394.2
 cp_opt_gopt_step                   200  4.0      0.2      0.6 128394.0 128394.1
 cp_eval_at                         217  5.0      0.1      0.4 128387.5 128387.5
 qs_forces                          217  6.0      0.3      0.8 128387.0 128387.1
 qs_energies                        217  7.0      0.2      0.6 127723.1 127724.1
 scf_env_do_scf                     217  8.0      0.4      1.4 123080.2 123081.3
 scf_env_do_scf_inner_loop        15220  9.0      3.7     41.8 118029.4 121367.1
 fft_wrap_pw1pw2                 262646 15.3      3.2     11.6  55512.0  57001.7
 rebuild_ks_matrix                15437 11.0      1.3      4.4  54757.3  54801.1
 qs_ks_build_kohn_sham_matrix     15437 12.0     10.1     32.2  54756.0  54801.0
 qs_ks_update_qs_env              15514 10.0      0.5      1.8  54235.2  54280.9
 mp_alltoall_z22v                432670 19.4  46869.1  48831.1  46869.1  48831.1
 fft_wrap_pw1pw2_200             170024 16.7     63.3    159.8  46587.3  48401.7
 fft3d_pb                        170024 17.7    671.1  16423.7  46286.7  48107.5
 qs_scf_new_mos                   15220 10.0      0.1      0.6  39096.0  39195.7
 qs_scf_loop_do_ot                15220 11.0      0.1      0.4  39095.9  39195.7
 ot_scf_mini                      15220 12.0      0.5      1.2  37321.4  37440.0
 dbcsr_multiply_generic          316005 15.1     21.0     55.0  32748.4  33006.8
 qs_vxc_create                    15437 13.0      1.3      5.3  30669.3  31412.3
 xc_vxc_pw_create                 15437 14.0     18.1     37.1  30668.0  31409.5
 xc_pw_derive                     92622 16.0      0.6      2.4  28100.7  29449.0
 qs_rho_update_rho_low            15437 10.0      0.5      3.3  23986.7  24157.8
 calculate_rho_elec               15437 11.0      8.2     12.1  23986.2  24157.1
 mp_waitall_1                   ******* 18.9  21667.4  23607.1  21667.4  23607.1
 ot_mini                          15220 13.0      1.8      6.1  22326.4  22382.4
 cube_transpose_4                 77402 19.0    130.5  11742.8  20274.2  22087.9
 multiply_cannon                 316005 16.1     25.1    263.4  20800.9  21972.4
 multiply_cannon_loop            316005 17.1     25.9    177.9  19761.8  20943.6
 qs_ot_get_derivative             15220 14.0      0.1      0.2  20007.4  20124.3
 xc_pw_divergence                 15437 15.0      0.3      0.9  18404.9  19106.3
 cube_transpose_3                 92622 18.5     68.9   1441.6  17196.8  18438.0
 density_rs2pw                    15437 12.0      1.3     14.9  16526.7  18437.9
 multiply_cannon_metrocomm3     5688090 18.1     12.8     68.8  15022.6  17020.1
 sum_up_and_integrate             15437 13.0      0.9      2.7  16864.7  16886.1
 integrate_v_rspace               15437 14.0      2.3      8.0  16857.7  16879.3
 cube_transpose_1                138933 18.6     44.8     92.0   7062.5  16661.4
 cube_transpose_2                123713 17.9     37.2    162.5   2617.6  15211.8
 potential_pw2rs                  15437 15.0      1.2      3.0  12902.2  12918.1
 xc_rho_set_and_dset_create       15437 15.0     14.5     29.4  12011.8  12655.4
 fft3d_ps                         92622 16.5     21.1     45.1   8912.1  12195.2
 fft_wrap_pw1pw2_70               30874 15.5      1.4      4.2   8562.3  11847.2
 qs_ot_get_p                      15514 13.0      0.2      0.5  10375.4  10469.2
 qs_ot_get_derivative_taylor      10352 15.0      0.3      0.5   9428.4   9506.6
 mp_sync                         191050 18.5   6702.5   8861.4   6702.5   8861.4
 mp_waitany                     1117974 16.5   6713.5   8481.0   6713.5   8481.0
 mp_sum_l                       1512064 16.2   6827.4   7689.2   6827.4   7689.2
 yz_to_xz                         46311 19.0     13.9    185.2   5267.2   7396.1
 mp_sum_d                        450889 15.8   5830.4   7038.2   5830.4   7038.2
 qs_ot_p2m_diag                    4937 14.0      1.3      2.6   6870.5   6902.5
 cp_fm_diag_elpa                   5802 15.6      0.3      1.7   6867.4   6884.0
 cp_fm_diag_elpa_base              5802 16.6   6839.0   6850.9   6851.9   6854.4
 multiply_cannon_metrocomm1     5688090 18.1     12.7     68.7   3833.6   6398.0
 transfer_rs2pw                   61965 13.0      1.5    105.6   4799.4   6382.5
 cp_dbcsr_syevd                    4937 15.0      1.8      6.3   5980.5   5987.0
 write_mo_set_to_restart          15220 10.0      0.9     22.8   1682.2   5448.6
 write_mo_set_low                   865 11.0      0.0      0.2   1636.8   5392.3
 qs_ot_get_derivative_diag         4868 15.0      0.1      0.3   5279.1   5320.0
 make_m2s                        632010 16.1      9.8     54.9   5024.5   5262.3
 make_images                     632010 17.1     19.0    113.7   4984.7   5157.4
 make_images_sizes               632010 18.1      0.7      6.4   4021.6   4676.4
 mp_alltoall_i44                 632010 19.1   4020.9   4675.8   4020.9   4675.8
 mp_alltoall_i22                  53131 17.2   4226.2   4508.4   4226.2   4508.4
 transfer_pw2rs                   61965 15.9      0.6      2.5   4471.5   4483.6
 mp_alltoall_d11v                190484 16.9   3711.8   4470.1   3711.8   4470.1
 cp_fm_write_unformatted            865 12.0     28.5   3984.8    246.9   4004.8
 mp_send_dv                         865 13.0    218.3   3965.9    218.3   3965.9
 copy_dbcsr_to_fm                  9428 14.4      0.4      1.5   3683.9   3902.9
 qs_energies_init_hamiltonians      217  8.0      0.1      0.4   3765.6   3765.9
 dbcsr_desymmetrize_deep           9428 15.4      0.5      3.8   3415.7   3630.0
 calculate_dispersion_pairpot       217  9.0      0.1      2.2   3574.0   3574.4
 calculate_dispersion_d4_pairpo     217 10.0   3473.1   3569.9   3473.1   3569.9
 grid_integrate_task_list         15437 15.0   1929.9   3370.0   1929.9   3370.0
 transfer_rs2pw_70                15437 14.0     47.5    425.7   2934.4   3349.1
 qs_ot_get_orbitals               15220 13.0      0.1      0.1   3117.1   3129.9
 transfer_rs2pw_200               15654 14.0     93.3    608.5   1201.8   3012.8
 transfer_pw2rs_70                15437 17.0     40.4    522.1   2543.0   2884.8
 grid_collocate_task_list         15437 12.0   1702.0   2825.3   1702.0   2825.3
 multiply_cannon_multrec        5688090 18.1    813.6   2778.9    814.7   2780.7
 rs_gather_matrices               15437 15.0      4.2      9.2   2011.3   2593.4
 -------------------------------------------------------------------------------

 The number of warnings for this run is : 5802
 
 -------------------------------------------------------------------------------
  **** **** ******  **  PROGRAM ENDED AT                 2025-11-08 22:27:08.783
 ***** ** ***  *** **   PROGRAM RAN ON                                    cn5322
 **    ****   ******    PROGRAM RAN BY                                    tiansc
 ***** **    ** ** **   PROGRAM PROCESS ID                                372413
  **** **  *******  **  PROGRAM STOPPED IN /fs2/home/tiansc/Ov_Ni-FeOx_AIMD/test
                                           /213
