 DBCSR| CPU Multiplication driver                                           XSMM (U)
 DBCSR| Multrec recursion limit                                              512 (U)
 DBCSR| Multiplication stack size                                          30000 (D)
 DBCSR| Maximum elements for images                                    UNLIMITED (U)
 DBCSR| Multiplicative factor virtual images                                   1 (U)
 DBCSR| Use multiplication densification                                       F (D)
 DBCSR| Multiplication size stacks                                             3 (U)
 DBCSR| Use memory pool for CPU allocation                                     F (U)
 DBCSR| Number of 3D layers                                               SINGLE (U)
 DBCSR| Use MPI memory allocation                                              F (U)
 DBCSR| Use RMA algorithm                                                      F (U)
 DBCSR| Use Communication thread                                               T (U)
 DBCSR| Communication thread load                                             30 (D)
 DBCSR| MPI: My process id                                                     0
 DBCSR| MPI: Number of processes                                               1
 DBCSR| OMP: Current number of threads                                        16
 DBCSR| OMP: Max number of threads                                            16
 DBCSR| ACC: Number of devices/node                                            1
 DBCSR| ACC: Number of stack-buffers per thread                                8 (U)
 DBCSR| ACC: Avoid driver after busy                                           F (U)
 DBCSR| ACC: Process inhomogeneous stacks                                      T (U)
 DBCSR| ACC: Min. flop for processing                                          0 (U)
 DBCSR| ACC: Use G2G algorithm                                                 F (D)
 DBCSR| ACC: Min. flop for sorting                                          4000 (U)
 DBCSR| ACC: Number of binning bins                                         4096 (U)
 DBCSR| ACC: Size of binning bins                                             16 (U)
 DBCSR| ACC: GPU backend is enabled                                            T (D)
 DBCSR| Split modifier for TAS multiplication algorithm                  1.0E+00 (U)


  **** **** ******  **  PROGRAM STARTED AT               2025-10-16 01:33:26.484
 ***** ** ***  *** **   PROGRAM STARTED ON                          c59b4aba8c77
 **    ****   ******    PROGRAM STARTED BY                             <unknown>
 ***** **    ** ** **   PROGRAM PROCESS ID                                   614
  **** **  *******  **  PROGRAM STARTED IN                             /mnt/cp2k

 CP2K| version string:                                       CP2K version 2025.1
 CP2K| source code revision number:                                  git:9635df4
 CP2K| cp2kflags: omp libint fftw3 libxc libgrpp pexsi elpa elpa_nvidia_gpu para
 CP2K|            llel scalapack cosma quip xsmm dbcsr_acc plumed2 spglib libdft
 CP2K|            td4 sirius libvori libbqb offload_cuda spla_gemm_offloading li
 CP2K|            ibvdwxc hdf5 trexio
 CP2K| is freely available from                            https://www.cp2k.org/
 CP2K| Program compiled at                          Tue Jan 14 21:07:27 UTC 2025
 CP2K| Program compiled on                                          eb3a76499499
 CP2K| Program compiled for                                           local_cuda
 CP2K| Data directory path                                        /opt/cp2k/data
 CP2K| Input file name                                           HAP_311_opt.inp

 GLOBAL| Force Environment number                                              1
 GLOBAL| Basis set file name                                        BASIS_MOLOPT
 GLOBAL| Potential file name                                      GTH_POTENTIALS
 GLOBAL| MM Potential file name                                     MM_POTENTIAL
 GLOBAL| Coordinate file name                                  HAP_311_clean.xyz
 GLOBAL| Method name                                                        CP2K
 GLOBAL| Project name                                                HAP_311_opt
 GLOBAL| Run type                                                        GEO_OPT
 GLOBAL| FFT library                                                       FFTW3
 GLOBAL| Diagonalization library                                            ELPA
 GLOBAL| DGEMM library                                                      SPLA
 GLOBAL| Minimum number of eigenvectors for ELPA usage                        16
 GLOBAL| Orthonormality check for eigenvectors                          DISABLED
 GLOBAL| Matrix multiplication library                                     COSMA
 GLOBAL| All-to-all communication in single precision                          F
 GLOBAL| FFTs using library dependent lengths                                  F
 GLOBAL| Grid backend                                                       AUTO
 GLOBAL| Global print level                                                  LOW
 GLOBAL| MPI I/O enabled                                                       T
 GLOBAL| Total number of message passing processes                             1
 GLOBAL| Number of threads for this process                                   16
 GLOBAL| This output is from process                                           0
 GLOBAL| OpenMP stack size per thread (OMP_STACKSIZE)                        16M
 GLOBAL| CPU model name                           Intel(R) Core(TM) Ultra 7 265K
 GLOBAL| CPUID                                                              1002
 GLOBAL| Compiled for CPUID                                                    0

 *** HINT in environment.F:928 :: The compiler target flags (generic) used ***
 *** to build this binary cannot exploit all extensions of this CPU model  ***
 *** (x86_avx2). Consider compiler target flags as part of FCFLAGS and     ***
 *** CFLAGS (ARCH file).                                                   ***


 MEMORY| system memory details [Kb]
 MEMORY|                        rank 0           min           max       average
 MEMORY| MemTotal             49330328      49330328      49330328      49330328
 MEMORY| MemFree              47817140      47817140      47817140      47817140
 MEMORY| Buffers                  8532          8532          8532          8532
 MEMORY| Cached                 664312        664312        664312        664312
 MEMORY| Slab                   108912        108912        108912        108912
 MEMORY| SReclaimable            38284         38284         38284         38284
 MEMORY| MemLikelyFree        48528268      48528268      48528268      48528268


 GENERATE|  Preliminary Number of Bonds generated:                             0
 GENERATE|  Achieved consistency in connectivity generation.

 *******************************************************************************
 *******************************************************************************
 **                                                                           **
 **     #####                         ##              ##                      **
 **    ##   ##            ##          ##              ##                      **
 **   ##     ##                       ##            ######                    **
 **   ##     ##  ##   ##  ##   #####  ##  ##   ####   ##    #####    #####    **
 **   ##     ##  ##   ##  ##  ##      ## ##   ##      ##   ##   ##  ##   ##   **
 **   ##  ## ##  ##   ##  ##  ##      ####     ###    ##   ######   ######    **
 **    ##  ###   ##   ##  ##  ##      ## ##      ##   ##   ##       ##        **
 **     #######   #####   ##   #####  ##  ##  ####    ##    #####   ##        **
 **           ##                                                    ##        **
 **                                                                           **
 **                                                ... make the atoms dance   **
 **                                                                           **
 **            Copyright (C) by CP2K developers group (2000-2025)             **
 **                      J. Chem. Phys. 152, 194103 (2020)                    **
 **                                                                           **
 *******************************************************************************


 TOTAL NUMBERS AND MAXIMUM NUMBERS

  Total number of            - Atomic kinds:                                   5
                             - Atoms:                                        387
                             - Shell sets:                                   387
                             - Shells:                                      2015
                             - Primitive Cartesian functions:               2031
                             - Cartesian basis functions:                   5338
                             - Spherical basis functions:                   4983

  Maximum angular momentum of- Orbital basis functions:                        2
                             - Local part of the GTH pseudopotential:          2
                             - Non-local part of the GTH pseudopotential:      3


 SCF PARAMETERS         Density guess:                                    ATOMIC
                        --------------------------------------------------------
                        max_scf:                                             100
                        max_scf_history:                                       0
                        max_diis:                                              4
                        --------------------------------------------------------
                        eps_scf:                                        1.00E-06
                        eps_scf_history:                                0.00E+00
                        eps_diis:                                       1.00E-01
                        eps_eigval:                                     1.00E-05
                        --------------------------------------------------------
                        level_shift [a.u.]:                             0.000000
                        --------------------------------------------------------
                        Outer loop SCF in use 
                        No variables optimised in outer loop
                        eps_scf                                         1.00E-06
                        max_scf                                               50
                        No outer loop optimization
                        step_size                                       5.00E-01

 *******************************************************************************
 ***                     STARTING GEOMETRY OPTIMIZATION                      ***
 ***                                 L-BFGS                                  ***
 *******************************************************************************

 --------------------------
 OPTIMIZATION STEP:      1
 --------------------------

 Number of electrons:                                                       2432
 Number of occupied orbitals:                                               1216
 Number of molecular orbitals:                                              1216

 Number of orbital functions:                                               4983
 Number of independent orbital functions:                                   4983

 Extrapolation method: initial_guess


 SCF WAVEFUNCTION OPTIMIZATION

  ----------------------------------- OT ---------------------------------------
  Minimizer      : DIIS                : direct inversion
                                         in the iterative subspace
                                         using   7 DIIS vectors
                                         safer DIIS on
  Preconditioner : FULL_SINGLE_INVERSE : inversion of 
                                         H + eS - 2*(Sc)(c^T*H*c+const)(Sc)^T
  Precond_solver : DEFAULT
  stepsize       :    0.08000000                  energy_gap     :    0.08000000
  eps_taylor     :   0.10000E-15                  max_taylor     :             4
  ----------------------------------- OT ---------------------------------------

  Step     Update method      Time    Convergence         Total energy    Change
  ------------------------------------------------------------------------------
     1 OT DIIS     0.80E-01   26.6     0.01662517     -6693.1109677889 -6.69E+03
     2 OT DIIS     0.80E-01   14.7     0.01005535     -6768.3665911233 -7.53E+01
     3 OT DIIS     0.80E-01   14.6     0.00711406     -6800.1330846832 -3.18E+01
     4 OT DIIS     0.80E-01   14.6     0.00548791     -6827.5185214171 -2.74E+01
     5 OT DIIS     0.80E-01   14.6     0.00387268     -6845.3665485101 -1.78E+01
     6 OT DIIS     0.80E-01   14.5     0.00299774     -6858.1129184254 -1.27E+01
     7 OT DIIS     0.80E-01   14.8     0.00238248     -6867.0201072112 -8.91E+00
     8 OT DIIS     0.80E-01   14.6     0.00186305     -6873.6647117105 -6.64E+00
     9 OT DIIS     0.80E-01   14.6     0.00147403     -6878.1201671413 -4.46E+00
    10 OT DIIS     0.80E-01   14.5     0.00115614     -6881.1955868503 -3.08E+00
    11 OT DIIS     0.80E-01   14.6     0.00093020     -6883.1053652497 -1.91E+00
    12 OT DIIS     0.80E-01   14.5     0.00074271     -6884.5377613498 -1.43E+00
    13 OT DIIS     0.80E-01   14.5     0.00062424     -6885.3859270380 -8.48E-01
    14 OT DIIS     0.80E-01   14.5     0.00052084     -6886.0785687429 -6.93E-01
    15 OT DIIS     0.80E-01   14.7     0.00043293     -6886.6286870499 -5.50E-01
    16 OT DIIS     0.80E-01   14.6     0.00036784     -6887.0189025357 -3.90E-01
    17 OT DIIS     0.80E-01   14.6     0.00032518     -6887.2729030390 -2.54E-01
    18 OT DIIS     0.80E-01   14.6     0.00028294     -6887.5091787436 -2.36E-01
    19 OT DIIS     0.80E-01   14.5     0.00025006     -6887.6826201541 -1.73E-01
    20 OT DIIS     0.80E-01   14.4     0.00021997     -6887.8307236460 -1.48E-01
    21 OT DIIS     0.80E-01   14.7     0.00019619     -6887.9491302216 -1.18E-01
    22 OT DIIS     0.80E-01   14.5     0.00017663     -6888.0427385011 -9.36E-02
    23 OT DIIS     0.80E-01   14.5     0.00015876     -6888.1292026574 -8.65E-02
    24 OT DIIS     0.80E-01   14.5     0.00014335     -6888.1961124327 -6.69E-02
    25 OT DIIS     0.80E-01   14.6     0.00012888     -6888.2643801422 -6.83E-02
    26 OT DIIS     0.80E-01   14.4     0.00011885     -6888.3087095272 -4.43E-02
    27 OT DIIS     0.80E-01   14.6     0.00011042     -6888.3434367838 -3.47E-02
    28 OT DIIS     0.80E-01   14.7     0.00010122     -6888.3855134260 -4.21E-02
    29 OT DIIS     0.80E-01   14.6     0.00009346     -6888.4182561184 -3.27E-02
    30 OT DIIS     0.80E-01   14.6     0.00008776     -6888.4443722228 -2.61E-02
    31 OT DIIS     0.80E-01   14.6     0.00008183     -6888.4675787736 -2.32E-02
    32 OT DIIS     0.80E-01   14.5     0.00007502     -6888.4984503335 -3.09E-02
    33 OT DIIS     0.80E-01   14.6     0.00007072     -6888.5160622097 -1.76E-02
    34 OT DIIS     0.80E-01   14.6     0.00006634     -6888.5314034681 -1.53E-02
    35 OT DIIS     0.80E-01   14.3     0.00006090     -6888.5534773065 -2.21E-02
    36 OT DIIS     0.80E-01   14.6     0.00005669     -6888.5689541226 -1.55E-02
    37 OT DIIS     0.80E-01   14.4     0.00005388     -6888.5795776845 -1.06E-02
    38 OT DIIS     0.80E-01   14.6     0.00005018     -6888.5919602985 -1.24E-02
    39 OT DIIS     0.80E-01   14.5     0.00004695     -6888.6047252185 -1.28E-02
    40 OT DIIS     0.80E-01   14.5     0.00004485     -6888.6134990861 -8.77E-03
    41 OT DIIS     0.80E-01   14.5     0.00004269     -6888.6199569848 -6.46E-03
    42 OT DIIS     0.80E-01   14.6     0.00003916     -6888.6323073101 -1.24E-02
    43 OT DIIS     0.80E-01   14.6     0.00003676     -6888.6409756607 -8.67E-03
    44 OT DIIS     0.80E-01   14.5     0.00003528     -6888.6463868505 -5.41E-03
    45 OT DIIS     0.80E-01   14.7     0.00003345     -6888.6519350612 -5.55E-03
    46 OT DIIS     0.80E-01   14.7     0.00003195     -6888.6573519455 -5.42E-03
    47 OT DIIS     0.80E-01   14.5     0.00003054     -6888.6626766393 -5.32E-03
    48 OT DIIS     0.80E-01   14.5     0.00002936     -6888.6664254121 -3.75E-03
    49 OT DIIS     0.80E-01   14.6     0.00002747     -6888.6731943464 -6.77E-03
    50 OT DIIS     0.80E-01   14.6     0.00002628     -6888.6777983669 -4.60E-03
    51 OT DIIS     0.80E-01   14.5     0.00002557     -6888.6807070348 -2.91E-03
    52 OT DIIS     0.80E-01   14.6     0.00002453     -6888.6840887228 -3.38E-03
    53 OT DIIS     0.80E-01   14.6     0.00002374     -6888.6867083468 -2.62E-03
    54 OT DIIS     0.80E-01   14.6     0.00002292     -6888.6896112162 -2.90E-03
    55 OT DIIS     0.80E-01   14.5     0.00002209     -6888.6924939775 -2.88E-03
    56 OT DIIS     0.80E-01   14.6     0.00002148     -6888.6946455309 -2.15E-03
    57 OT DIIS     0.80E-01   14.7     0.00002099     -6888.6967220642 -2.08E-03
    58 OT DIIS     0.80E-01   14.6     0.00002066     -6888.6987299456 -2.01E-03
    59 OT DIIS     0.80E-01   14.6     0.00002032     -6888.7001879089 -1.46E-03
    60 OT DIIS     0.80E-01   14.4     0.00001984     -6888.7031913888 -3.00E-03
    61 OT DIIS     0.80E-01   14.7     0.00001917     -6888.7061911936 -3.00E-03
    62 OT DIIS     0.80E-01   14.5     0.00001863     -6888.7087856858 -2.59E-03
    63 OT DIIS     0.80E-01   14.6     0.00001803     -6888.7116884226 -2.90E-03
    64 OT DIIS     0.80E-01   14.6     0.00001724     -6888.7147614992 -3.07E-03
    65 OT DIIS     0.80E-01   14.6     0.00001680     -6888.7175340899 -2.77E-03
    66 OT DIIS     0.80E-01   14.3     0.00001617     -6888.7187838002 -1.25E-03
    67 OT DIIS     0.80E-01   14.6     0.00001581     -6888.7210218313 -2.24E-03
    68 OT DIIS     0.80E-01   14.5     0.00001530     -6888.7229390920 -1.92E-03
    69 OT DIIS     0.80E-01   14.4     0.00001487     -6888.7247355804 -1.80E-03
    70 OT DIIS     0.80E-01   14.6     0.00001440     -6888.7265204662 -1.78E-03
    71 OT DIIS     0.80E-01   14.6     0.00001408     -6888.7278840833 -1.36E-03
    72 OT DIIS     0.80E-01   14.5     0.00001379     -6888.7294661712 -1.58E-03
    73 OT DIIS     0.80E-01   14.6     0.00001374     -6888.7304579961 -9.92E-04
    74 OT DIIS     0.80E-01   14.5     0.00001331     -6888.7311497555 -6.92E-04
    75 OT DIIS     0.80E-01   14.4     0.00001297     -6888.7332062340 -2.06E-03
    76 OT DIIS     0.80E-01   14.5     0.00001269     -6888.7342178915 -1.01E-03
    77 OT DIIS     0.80E-01   14.7     0.00001245     -6888.7350673137 -8.49E-04
    78 OT DIIS     0.80E-01   14.4     0.00001219     -6888.7365230764 -1.46E-03
    79 OT DIIS     0.80E-01   14.5     0.00001195     -6888.7376679911 -1.14E-03
    80 OT DIIS     0.80E-01   14.6     0.00001180     -6888.7380657040 -3.98E-04
    81 OT DIIS     0.80E-01   14.7     0.00001128     -6888.7402831799 -2.22E-03
    82 OT DIIS     0.80E-01   14.5     0.00001106     -6888.7417225365 -1.44E-03
    83 OT DIIS     0.80E-01   14.4     0.00001089     -6888.7419966919 -2.74E-04
    84 OT DIIS     0.80E-01   14.4     0.00001076     -6888.7425235856 -5.27E-04
    85 OT DIIS     0.80E-01   14.5     0.00001056     -6888.7435747725 -1.05E-03
    86 OT DIIS     0.80E-01   14.5     0.00001039     -6888.7443270193 -7.52E-04
    87 OT DIIS     0.80E-01   14.5     0.00001023     -6888.7465324886 -2.21E-03
    88 OT DIIS     0.80E-01   14.5     0.00000994     -6888.7470902622 -5.58E-04
    89 OT DIIS     0.80E-01   14.4     0.00000986     -6888.7474602597 -3.70E-04
    90 OT DIIS     0.80E-01   14.4     0.00000971     -6888.7482269433 -7.67E-04
    91 OT DIIS     0.80E-01   14.4     0.00000946     -6888.7494232411 -1.20E-03
    92 OT DIIS     0.80E-01   14.6     0.00000921     -6888.7509594530 -1.54E-03
    93 OT DIIS     0.80E-01   14.3     0.00000917     -6888.7517931833 -8.34E-04
    94 OT DIIS     0.80E-01   14.6     0.00000905     -6888.7527166671 -9.23E-04
    95 OT DIIS     0.80E-01   14.6     0.00000919     -6888.7530044158 -2.88E-04
    96 OT DIIS     0.80E-01   14.6     0.00000858     -6888.7538521047 -8.48E-04
    97 OT DIIS     0.80E-01   14.4     0.00000842     -6888.7546440425 -7.92E-04
    98 OT DIIS     0.80E-01   14.6     0.00000822     -6888.7555592346 -9.15E-04
    99 OT DIIS     0.80E-01   14.7     0.00000815     -6888.7561789819 -6.20E-04
   100 OT DIIS     0.80E-01   14.6     0.00000810     -6888.7567108973 -5.32E-04

  Leaving inner SCF loop after reaching   100 steps.


  Electronic density on regular grids:      -2431.9999999823        0.0000000177
  Core density on regular grids:             2431.9999999988       -0.0000000012
  Total charge density on r-space grids:        0.0000000165
  Total charge density g-space grids:           0.0000000165

  Overlap energy of the core charge distribution:               0.03226685602234
  Self energy of the core charge distribution:             -16017.19408509233290
  Core Hamiltonian energy:                                   4341.67249765914949
  Hartree energy:                                            6119.89818444479988
  Exchange-correlation energy:                              -1331.29075742074269
  Dispersion energy:                                           -1.87481734422228

  Total energy:                                             -6888.75671089732805

  outer SCF iter =    1 RMS gradient =   0.81E-05 energy =      -6888.7567108973

  ----------------------------------- OT ---------------------------------------
  Minimizer      : DIIS                : direct inversion
                                         in the iterative subspace
                                         using   7 DIIS vectors
                                         safer DIIS on
  Preconditioner : FULL_SINGLE_INVERSE : inversion of 
                                         H + eS - 2*(Sc)(c^T*H*c+const)(Sc)^T
  Precond_solver : DEFAULT
  stepsize       :    0.08000000                  energy_gap     :    0.08000000
  eps_taylor     :   0.10000E-15                  max_taylor     :             4
  ----------------------------------- OT ---------------------------------------

  Step     Update method      Time    Convergence         Total energy    Change
  ------------------------------------------------------------------------------
     1 OT DIIS     0.80E-01   37.7     0.00009460     -6888.7572395154 -5.29E-04
     2 OT DIIS     0.80E-01   14.0     0.00011026     -6888.7598992602 -2.66E-03
     3 OT DIIS     0.80E-01   13.8     0.00012296     -6888.7606372604 -7.38E-04
     4 OT DIIS     0.80E-01   14.1     0.00009547     -6888.7618191431 -1.18E-03
     5 OT DIIS     0.80E-01   14.1     0.00007381     -6888.7633083880 -1.49E-03
     6 OT DIIS     0.80E-01   13.9     0.00006610     -6888.7641076760 -7.99E-04
     7 OT DIIS     0.80E-01   14.0     0.00005393     -6888.7651819892 -1.07E-03
     8 OT DIIS     0.80E-01   13.9     0.00005038     -6888.7660729853 -8.91E-04
     9 OT DIIS     0.80E-01   13.9     0.00004335     -6888.7668285303 -7.56E-04
    10 OT DIIS     0.80E-01   14.4     0.00004423     -6888.7676287459 -8.00E-04
    11 OT DIIS     0.80E-01   14.6     0.00004025     -6888.7686017135 -9.73E-04
    12 OT DIIS     0.80E-01   14.5     0.00004139     -6888.7694154535 -8.14E-04
    13 OT DIIS     0.80E-01   14.5     0.00004169     -6888.7702303026 -8.15E-04
    14 OT DIIS     0.80E-01   14.4     0.00004042     -6888.7710463396 -8.16E-04
    15 OT DIIS     0.80E-01   14.6     0.00003973     -6888.7715890892 -5.43E-04
    16 OT DIIS     0.80E-01   14.5     0.00003941     -6888.7720912533 -5.02E-04
    17 OT DIIS     0.80E-01   14.3     0.00003778     -6888.7725926949 -5.01E-04
    18 OT DIIS     0.80E-01   14.4     0.00003432     -6888.7733743136 -7.82E-04
    19 OT DIIS     0.80E-01   14.5     0.00003681     -6888.7733660255  8.29E-06
    20 OT DIIS     0.80E-01   14.4     0.00003781     -6888.7737034191 -3.37E-04
    21 OT DIIS     0.80E-01   14.4     0.00003503     -6888.7740642555 -3.61E-04
    22 OT DIIS     0.80E-01   14.5     0.00003502     -6888.7740068963  5.74E-05
    23 OT DIIS     0.80E-01   14.5     0.00003099     -6888.7741375818 -1.31E-04
    24 OT DIIS     0.80E-01   14.5     0.00002788     -6888.7742375871 -1.00E-04
    25 OT DIIS     0.80E-01   14.4     0.00002524     -6888.7743389675 -1.01E-04
    26 OT DIIS     0.80E-01   14.4     0.00002299     -6888.7744354410 -9.65E-05
    27 OT DIIS     0.80E-01   14.4     0.00002243     -6888.7745004510 -6.50E-05
    28 OT DIIS     0.80E-01   14.4     0.00002236     -6888.7746161368 -1.16E-04
    29 OT DIIS     0.80E-01   14.2     0.00002270     -6888.7747682984 -1.52E-04
    30 OT DIIS     0.80E-01   14.5     0.00002495     -6888.7748093079 -4.10E-05
    31 OT DIIS     0.80E-01   14.4     0.00002445     -6888.7749277804 -1.18E-04
    32 OT DIIS     0.80E-01   14.4     0.00002428     -6888.7750347112 -1.07E-04
    33 OT DIIS     0.80E-01   14.4     0.00002361     -6888.7751583784 -1.24E-04
    34 OT DIIS     0.80E-01   14.3     0.00002250     -6888.7751853050 -2.69E-05
    35 OT DIIS     0.80E-01   14.6     0.00002124     -6888.7752407605 -5.55E-05
    36 OT DIIS     0.80E-01   14.4     0.00002030     -6888.7753066541 -6.59E-05
    37 OT DIIS     0.80E-01   14.3     0.00001922     -6888.7753947168 -8.81E-05
    38 OT DIIS     0.80E-01   14.4     0.00001963     -6888.7754232951 -2.86E-05
    39 OT DIIS     0.80E-01   14.5     0.00001890     -6888.7754885154 -6.52E-05
    40 OT DIIS     0.80E-01   14.4     0.00001870     -6888.7755632788 -7.48E-05
    41 OT DIIS     0.80E-01   14.5     0.00001905     -6888.7756721644 -1.09E-04
    42 OT DIIS     0.80E-01   14.4     0.00001968     -6888.7757077801 -3.56E-05
    43 OT DIIS     0.80E-01   14.5     0.00001974     -6888.7757992481 -9.15E-05
    44 OT DIIS     0.80E-01   14.5     0.00002013     -6888.7758646699 -6.54E-05
    45 OT DIIS     0.80E-01   14.5     0.00001925     -6888.7759304760 -6.58E-05
    46 OT DIIS     0.80E-01   14.5     0.00001966     -6888.7759596132 -2.91E-05
    47 OT DIIS     0.80E-01   14.5     0.00001830     -6888.7759916855 -3.21E-05
    48 OT DIIS     0.80E-01   14.5     0.00001701     -6888.7760349879 -4.33E-05
    49 OT DIIS     0.80E-01   14.4     0.00001639     -6888.7761069944 -7.20E-05
    50 OT DIIS     0.80E-01   14.5     0.00001632     -6888.7761246804 -1.77E-05
    51 OT DIIS     0.80E-01   14.5     0.00001610     -6888.7761934588 -6.88E-05
    52 OT DIIS     0.80E-01   14.7     0.00001670     -6888.7762533951 -5.99E-05
    53 OT DIIS     0.80E-01   14.6     0.00001684     -6888.7763116326 -5.82E-05
    54 OT DIIS     0.80E-01   14.4     0.00001815     -6888.7763730138 -6.14E-05
    55 OT DIIS     0.80E-01   14.5     0.00001808     -6888.7764045403 -3.15E-05
    56 OT DIIS     0.80E-01   14.5     0.00001733     -6888.7764413053 -3.68E-05
    57 OT DIIS     0.80E-01   14.5     0.00001642     -6888.7765070543 -6.57E-05
    58 OT DIIS     0.80E-01   14.6     0.00001595     -6888.7765036947  3.36E-06
    59 OT DIIS     0.80E-01   14.5     0.00001493     -6888.7765535533 -4.99E-05
    60 OT DIIS     0.80E-01   14.8     0.00001471     -6888.7765910418 -3.75E-05
    61 OT DIIS     0.80E-01   14.6     0.00001430     -6888.7766231774 -3.21E-05
    62 OT DIIS     0.80E-01   14.7     0.00001477     -6888.7766766640 -5.35E-05
    63 OT DIIS     0.80E-01   14.6     0.00001512     -6888.7767105414 -3.39E-05
    64 OT DIIS     0.80E-01   14.9     0.00001532     -6888.7767513645 -4.08E-05
    65 OT DIIS     0.80E-01   14.6     0.00001523     -6888.7768160694 -6.47E-05
    66 OT DIIS     0.80E-01   14.5     0.00001575     -6888.7768239206 -7.85E-06
    67 OT DIIS     0.80E-01   14.4     0.00001501     -6888.7768736665 -4.97E-05
    68 OT DIIS     0.80E-01   14.4     0.00001491     -6888.7769048445 -3.12E-05
    69 OT DIIS     0.80E-01   14.6     0.00001394     -6888.7769142965 -9.45E-06
    70 OT DIIS     0.80E-01   14.4     0.00001366     -6888.7769573935 -4.31E-05
    71 OT DIIS     0.80E-01   14.4     0.00001333     -6888.7769785985 -2.12E-05
    72 OT DIIS     0.80E-01   14.6     0.00001310     -6888.7770051194 -2.65E-05
    73 OT DIIS     0.80E-01   14.6     0.00001292     -6888.7770501527 -4.50E-05
    74 OT DIIS     0.80E-01   14.5     0.00001348     -6888.7770719141 -2.18E-05
    75 OT DIIS     0.80E-01   14.4     0.00001343     -6888.7771209568 -4.90E-05
    76 OT DIIS     0.80E-01   14.7     0.00001409     -6888.7771618249 -4.09E-05
    77 OT DIIS     0.80E-01   14.6     0.00001384     -6888.7771657830 -3.96E-06
    78 OT DIIS     0.80E-01   14.4     0.00001381     -6888.7772109933 -4.52E-05
    79 OT DIIS     0.80E-01   14.7     0.00001342     -6888.7772276091 -1.66E-05
    80 OT DIIS     0.80E-01   14.6     0.00001285     -6888.7772433338 -1.57E-05
    81 OT DIIS     0.80E-01   14.5     0.00001206     -6888.7772725272 -2.92E-05
    82 OT DIIS     0.80E-01   14.5     0.00001193     -6888.7772884526 -1.59E-05
    83 OT DIIS     0.80E-01   14.6     0.00001161     -6888.7773212061 -3.28E-05
    84 OT DIIS     0.80E-01   14.6     0.00001198     -6888.7773571696 -3.60E-05
    85 OT DIIS     0.80E-01   14.7     0.00001219     -6888.7773673340 -1.02E-05
    86 OT DIIS     0.80E-01   14.5     0.00001250     -6888.7774119634 -4.46E-05
    87 OT DIIS     0.80E-01   14.5     0.00001282     -6888.7774385609 -2.66E-05
    88 OT DIIS     0.80E-01   14.4     0.00001290     -6888.7774564764 -1.79E-05
    89 OT DIIS     0.80E-01   14.5     0.00001218     -6888.7774760050 -1.95E-05
    90 OT DIIS     0.80E-01   14.5     0.00001194     -6888.7774897751 -1.38E-05
    91 OT DIIS     0.80E-01   14.6     0.00001117     -6888.7775124722 -2.27E-05
    92 OT DIIS     0.80E-01   14.6     0.00001104     -6888.7775398111 -2.73E-05
    93 OT DIIS     0.80E-01   14.5     0.00001086     -6888.7775443012 -4.49E-06
    94 OT DIIS     0.80E-01   14.6     0.00001074     -6888.7775751315 -3.08E-05
    95 OT DIIS     0.80E-01   14.5     0.00001098     -6888.7776017176 -2.66E-05
    96 OT DIIS     0.80E-01   14.5     0.00001141     -6888.7776250052 -2.33E-05
    97 OT DIIS     0.80E-01   14.5     0.00001133     -6888.7776438951 -1.89E-05
    98 OT DIIS     0.80E-01   14.6     0.00001164     -6888.7776669329 -2.30E-05
    99 OT DIIS     0.80E-01   14.4     0.00001118     -6888.7776868810 -1.99E-05
   100 OT DIIS     0.80E-01   14.6     0.00001111     -6888.7777126950 -2.58E-05

  Leaving inner SCF loop after reaching   100 steps.


  Electronic density on regular grids:      -2431.9999999823        0.0000000177
  Core density on regular grids:             2431.9999999988       -0.0000000012
  Total charge density on r-space grids:        0.0000000166
  Total charge density g-space grids:           0.0000000166

  Overlap energy of the core charge distribution:               0.03226685602234
  Self energy of the core charge distribution:             -16017.19408509233290
  Core Hamiltonian energy:                                   4341.62748491964430
  Hartree energy:                                            6119.92130366312358
  Exchange-correlation energy:                              -1331.28986569718722
  Dispersion energy:                                           -1.87481734422228

  Total energy:                                             -6888.77771269495406

  outer SCF iter =    2 RMS gradient =   0.11E-04 energy =      -6888.7777126950

  ----------------------------------- OT ---------------------------------------
  Minimizer      : DIIS                : direct inversion
                                         in the iterative subspace
                                         using   7 DIIS vectors
                                         safer DIIS on
  Preconditioner : FULL_SINGLE_INVERSE : inversion of 
                                         H + eS - 2*(Sc)(c^T*H*c+const)(Sc)^T
  Precond_solver : DEFAULT
  stepsize       :    0.08000000                  energy_gap     :    0.08000000
  eps_taylor     :   0.10000E-15                  max_taylor     :             4
  ----------------------------------- OT ---------------------------------------

  Step     Update method      Time    Convergence         Total energy    Change
  ------------------------------------------------------------------------------
     1 OT DIIS     0.80E-01   36.4     0.00001085     -6888.7777095463  3.15E-06
     2 OT DIIS     0.80E-01   13.8     0.00003493     -6888.7777104010 -8.55E-07
     3 OT DIIS     0.80E-01   13.8     0.00000962     -6888.7777560213 -4.56E-05
     4 OT DIIS     0.80E-01   14.0     0.00000903     -6888.7777670433 -1.10E-05
     5 OT DIIS     0.80E-01   13.9     0.00001406     -6888.7779422800 -1.75E-04
     6 OT DIIS     0.80E-01   14.0     0.00001831     -6888.7787048626 -7.63E-04
     7 OT DIIS     0.80E-01   13.9     0.00001357     -6888.7787734134 -6.86E-05
     8 OT SD       0.80E-01   14.0     0.00001556     -6888.7787799626 -6.55E-06
     9 OT DIIS     0.80E-01   14.0     0.00003040     -6888.7787651835  1.48E-05
    10 OT DIIS     0.80E-01   13.9     0.00000970     -6888.7787352197  3.00E-05
    11 OT DIIS     0.80E-01   14.0     0.00001302     -6888.7787864977 -5.13E-05
    12 OT DIIS     0.80E-01   13.9     0.00000535     -6888.7788488604 -6.24E-05
    13 OT DIIS     0.80E-01   14.1     0.00000517     -6888.7788596019 -1.07E-05
    14 OT DIIS     0.80E-01   14.6     0.00000561     -6888.7788649797 -5.38E-06
    15 OT DIIS     0.80E-01   14.5     0.00000517     -6888.7788759361 -1.10E-05
    16 OT DIIS     0.80E-01   14.5     0.00000543     -6888.7788951134 -1.92E-05
    17 OT DIIS     0.80E-01   14.4     0.00000550     -6888.7789413488 -4.62E-05
    18 OT DIIS     0.80E-01   14.5     0.00000630     -6888.7789534041 -1.21E-05
    19 OT SD       0.80E-01   14.5     0.00000638     -6888.7789818331 -2.84E-05
    20 OT DIIS     0.80E-01   14.5     0.00002905     -6888.7789625389  1.93E-05
    21 OT DIIS     0.80E-01   14.6     0.00000518     -6888.7790403070 -7.78E-05
    22 OT SD       0.80E-01   14.5     0.00000484     -6888.7790862783 -4.60E-05
    23 OT DIIS     0.80E-01   14.3     0.00001521     -6888.7790850970  1.18E-06
    24 OT DIIS     0.80E-01   14.6     0.00000493     -6888.7791397231 -5.46E-05
    25 OT DIIS     0.80E-01   14.6     0.00000434     -6888.7791896095 -4.99E-05
    26 OT SD       0.80E-01   14.5     0.00000406     -6888.7792066324 -1.70E-05
    27 OT DIIS     0.80E-01   14.4     0.00001110     -6888.7792084123 -1.78E-06
    28 OT DIIS     0.80E-01   14.6     0.00000371     -6888.7792411604 -3.27E-05
    29 OT DIIS     0.80E-01   14.5     0.00000392     -6888.7792747681 -3.36E-05
    30 OT DIIS     0.80E-01   14.5     0.00000382     -6888.7792802577 -5.49E-06
    31 OT DIIS     0.80E-01   14.5     0.00000349     -6888.7793109866 -3.07E-05
    32 OT SD       0.80E-01   14.4     0.00000341     -6888.7793295314 -1.85E-05
    33 OT DIIS     0.80E-01   14.6     0.00000667     -6888.7793331932 -3.66E-06
    34 OT DIIS     0.80E-01   14.4     0.00000336     -6888.7793368656 -3.67E-06
    35 OT DIIS     0.80E-01   14.6     0.00000325     -6888.7793526103 -1.57E-05
    36 OT DIIS     0.80E-01   14.3     0.00000320     -6888.7793684957 -1.59E-05
    37 OT DIIS     0.80E-01   14.6     0.00000363     -6888.7793774479 -8.95E-06
    38 OT DIIS     0.80E-01   14.5     0.00000317     -6888.7793999995 -2.26E-05
    39 OT SD       0.80E-01   14.4     0.00000321     -6888.7794187175 -1.87E-05
    40 OT DIIS     0.80E-01   14.5     0.00000552     -6888.7794222807 -3.56E-06
    41 OT DIIS     0.80E-01   14.4     0.00000321     -6888.7794381665 -1.59E-05
    42 OT DIIS     0.80E-01   14.5     0.00000309     -6888.7794551206 -1.70E-05
    43 OT DIIS     0.80E-01   14.6     0.00000311     -6888.7794702747 -1.52E-05
    44 OT DIIS     0.80E-01   14.6     0.00000306     -6888.7794878690 -1.76E-05
    45 OT SD       0.80E-01   14.4     0.00000328     -6888.7794971328 -9.26E-06
    46 OT DIIS     0.80E-01   14.5     0.00000859     -6888.7794990007 -1.87E-06
    47 OT DIIS     0.80E-01   14.5     0.00000300     -6888.7795252388 -2.62E-05
    48 OT DIIS     0.80E-01   14.5     0.00000307     -6888.7795394382 -1.42E-05
    49 OT SD       0.80E-01   14.6     0.00000300     -6888.7795632767 -2.38E-05
    50 OT SD       0.80E-01   14.4     0.00000469     -6888.7795667882 -3.51E-06
    51 OT DIIS     0.80E-01   14.6     0.00002152     -6888.7795551253  1.17E-05
    52 OT DIIS     0.80E-01   14.5     0.00000300     -6888.7795927688 -3.76E-05
    53 OT DIIS     0.80E-01   14.5     0.00000294     -6888.7796022251 -9.46E-06
    54 OT DIIS     0.80E-01   14.5     0.00000311     -6888.7796321121 -2.99E-05
    55 OT DIIS     0.80E-01   14.4     0.00000325     -6888.7796367436 -4.63E-06
    56 OT SD       0.80E-01   14.4     0.00000354     -6888.7796886148 -5.19E-05
    57 OT SD       0.80E-01   14.6     0.00000734     -6888.7796903729 -1.76E-06
    58 OT DIIS     0.80E-01   14.4     0.00003120     -6888.7796563852  3.40E-05
    59 OT DIIS     0.80E-01   14.4     0.00000288     -6888.7796745040 -1.81E-05
    60 OT DIIS     0.80E-01   14.5     0.00000292     -6888.7797038317 -2.93E-05
    61 OT SD       0.80E-01   14.5     0.00000285     -6888.7797042625 -4.31E-07
    62 OT DIIS     0.80E-01   14.6     0.00000596     -6888.7797067187 -2.46E-06
    63 OT SD       0.80E-01   14.6     0.00000287     -6888.7797193589 -1.26E-05
    64 OT DIIS     0.80E-01   14.4     0.00000578     -6888.7797216649 -2.31E-06
    65 OT DIIS     0.80E-01   14.4     0.00000326     -6888.7797507629 -2.91E-05
    66 OT SD       0.80E-01   14.4     0.00000461     -6888.7798361463 -8.54E-05
    67 OT SD       0.80E-01   14.6     0.00000925     -6888.7798364222 -2.76E-07
    68 OT DIIS     0.80E-01   14.4     0.00004001     -6888.7797790870  5.73E-05
    69 OT DIIS     0.80E-01   14.5     0.00000280     -6888.7797941666 -1.51E-05
    70 OT SD       0.80E-01   14.4     0.00000369     -6888.7798664450 -7.23E-05
    71 OT SD       0.80E-01   14.4     0.00001208     -6888.7798641971  2.25E-06
    72 OT DIIS     0.80E-01   14.4     0.00006703     -6888.7797127604  1.51E-04
    73 OT SD       0.80E-01   14.5     0.00000276     -6888.7799160767 -2.03E-04
    74 OT DIIS     0.80E-01   14.4     0.00000570     -6888.7799175614 -1.48E-06
    75 OT DIIS     0.80E-01   14.4     0.00000332     -6888.7799203319 -2.77E-06
    76 OT DIIS     0.80E-01   14.5     0.00000260     -6888.7799394324 -1.91E-05
    77 OT SD       0.80E-01   14.5     0.00000323     -6888.7799550510 -1.56E-05
    78 OT DIIS     0.80E-01   14.5     0.00001181     -6888.7799525476  2.50E-06
    79 OT DIIS     0.80E-01   14.4     0.00000239     -6888.7799610172 -8.47E-06
    80 OT SD       0.80E-01   14.6     0.00000233     -6888.7799799873 -1.90E-05
    81 OT DIIS     0.80E-01   14.3     0.00000451     -6888.7799814474 -1.46E-06
    82 OT DIIS     0.80E-01   14.5     0.00000270     -6888.7799957598 -1.43E-05
    83 OT DIIS     0.80E-01   14.3     0.00000312     -6888.7800321991 -3.64E-05
    84 OT SD       0.80E-01   14.6     0.00000431     -6888.7800500564 -1.79E-05
    85 OT SD       0.80E-01   14.3     0.00001016     -6888.7800488079  1.25E-06
    86 OT DIIS     0.80E-01   14.5     0.00004824     -6888.7799651928  8.36E-05
    87 OT DIIS     0.80E-01   14.4     0.00000254     -6888.7800194461 -5.43E-05
    88 OT SD       0.80E-01   14.5     0.00000204     -6888.7800284358 -8.99E-06
    89 OT DIIS     0.80E-01   14.4     0.00000498     -6888.7800292930 -8.57E-07
    90 OT DIIS     0.80E-01   14.5     0.00000201     -6888.7800327143 -3.42E-06
    91 OT DIIS     0.80E-01   14.6     0.00000192     -6888.7800332177 -5.03E-07
    92 OT DIIS     0.80E-01   14.3     0.00000199     -6888.7800367607 -3.54E-06
    93 OT DIIS     0.80E-01   14.5     0.00000185     -6888.7800471616 -1.04E-05
    94 OT DIIS     0.80E-01   14.4     0.00000248     -6888.7800571878 -1.00E-05
    95 OT DIIS     0.80E-01   14.6     0.00000187     -6888.7800705716 -1.34E-05
    96 OT DIIS     0.80E-01   14.5     0.00000192     -6888.7800723555 -1.78E-06
    97 OT SD       0.80E-01   14.4     0.00000215     -6888.7800877842 -1.54E-05
    98 OT DIIS     0.80E-01   14.5     0.00000843     -6888.7800864080  1.38E-06
    99 OT DIIS     0.80E-01   14.7     0.00000164     -6888.7800920153 -5.61E-06
   100 OT DIIS     0.80E-01   14.5     0.00000215     -6888.7800987072 -6.69E-06

  Leaving inner SCF loop after reaching   100 steps.


  Electronic density on regular grids:      -2431.9999999822        0.0000000178
  Core density on regular grids:             2431.9999999988       -0.0000000012
  Total charge density on r-space grids:        0.0000000166
  Total charge density g-space grids:           0.0000000166

  Overlap energy of the core charge distribution:               0.03226685602234
  Self energy of the core charge distribution:             -16017.19408509233290
  Core Hamiltonian energy:                                   4341.61071864754558
  Hartree energy:                                            6119.92865269794402
  Exchange-correlation energy:                              -1331.28283447218519
  Dispersion energy:                                           -1.87481734422228

  Total energy:                                             -6888.78009870722872

  outer SCF iter =    3 RMS gradient =   0.22E-05 energy =      -6888.7800987072

  ----------------------------------- OT ---------------------------------------
  Minimizer      : DIIS                : direct inversion
                                         in the iterative subspace
                                         using   7 DIIS vectors
                                         safer DIIS on
  Preconditioner : FULL_SINGLE_INVERSE : inversion of 
                                         H + eS - 2*(Sc)(c^T*H*c+const)(Sc)^T
  Precond_solver : DEFAULT
  stepsize       :    0.08000000                  energy_gap     :    0.08000000
  eps_taylor     :   0.10000E-15                  max_taylor     :             4
  ----------------------------------- OT ---------------------------------------

  Step     Update method      Time    Convergence         Total energy    Change
  ------------------------------------------------------------------------------
     1 OT DIIS     0.80E-01   36.2     0.00000188     -6888.7801067104 -8.00E-06
     2 OT DIIS     0.80E-01   13.9     0.00000575     -6888.7801065386  1.72E-07
     3 OT DIIS     0.80E-01   14.2     0.00000199     -6888.7801078393 -1.30E-06
     4 OT DIIS     0.80E-01   14.2     0.00000146     -6888.7801081748 -3.35E-07
     5 OT DIIS     0.80E-01   14.3     0.00000143     -6888.7801086003 -4.26E-07
     6 OT DIIS     0.80E-01   13.8     0.00000140     -6888.7801093994 -7.99E-07
     7 OT DIIS     0.80E-01   13.9     0.00000142     -6888.7801104529 -1.05E-06
     8 OT DIIS     0.80E-01   14.0     0.00000142     -6888.7801123803 -1.93E-06
     9 OT DIIS     0.80E-01   13.9     0.00000141     -6888.7801141502 -1.77E-06
    10 OT DIIS     0.80E-01   13.9     0.00000144     -6888.7801179607 -3.81E-06
    11 OT DIIS     0.80E-01   13.9     0.00000152     -6888.7801204015 -2.44E-06
    12 OT DIIS     0.80E-01   13.9     0.00000146     -6888.7801226575 -2.26E-06
    13 OT DIIS     0.80E-01   13.9     0.00000145     -6888.7801260891 -3.43E-06
    14 OT DIIS     0.80E-01   13.7     0.00000143     -6888.7801279789 -1.89E-06
    15 OT DIIS     0.80E-01   13.8     0.00000150     -6888.7801303524 -2.37E-06
    16 OT DIIS     0.80E-01   13.6     0.00000144     -6888.7801308416 -4.89E-07
    17 OT SD       0.80E-01   13.2     0.00000142     -6888.7801329837 -2.14E-06
    18 OT DIIS     0.80E-01   13.6     0.00000310     -6888.7801334908 -5.07E-07
    19 OT SD       0.80E-01   13.3     0.00000154     -6888.7801376140 -4.12E-06
    20 OT DIIS     0.80E-01   13.4     0.00000533     -6888.7801375058  1.08E-07
    21 OT DIIS     0.80E-01   13.4     0.00000140     -6888.7801418161 -4.31E-06
    22 OT DIIS     0.80E-01   13.4     0.00000138     -6888.7801443402 -2.52E-06
    23 OT DIIS     0.80E-01   13.2     0.00000140     -6888.7801459222 -1.58E-06
    24 OT SD       0.80E-01   13.3     0.00000135     -6888.7801645154 -1.86E-05
    25 OT SD       0.80E-01   13.2     0.00000238     -6888.7801650827 -5.67E-07
    26 OT DIIS     0.80E-01   13.3     0.00001062     -6888.7801617070  3.38E-06
    27 OT DIIS     0.80E-01   13.2     0.00000127     -6888.7801666869 -4.98E-06
    28 OT DIIS     0.80E-01   13.1     0.00000127     -6888.7801704925 -3.81E-06
    29 OT DIIS     0.80E-01   13.3     0.00000124     -6888.7801712795 -7.87E-07
    30 OT DIIS     0.80E-01   13.3     0.00000127     -6888.7801723747 -1.10E-06
    31 OT SD       0.80E-01   13.4     0.00000127     -6888.7801734640 -1.09E-06
    32 OT DIIS     0.80E-01   13.4     0.00000282     -6888.7801739336 -4.70E-07
    33 OT DIIS     0.80E-01   13.2     0.00000122     -6888.7801747709 -8.37E-07
    34 OT SD       0.80E-01   13.3     0.00000121     -6888.7801775890 -2.82E-06
    35 OT DIIS     0.80E-01   13.4     0.00000172     -6888.7801782184 -6.29E-07
    36 OT DIIS     0.80E-01   13.3     0.00000122     -6888.7801813362 -3.12E-06
    37 OT DIIS     0.80E-01   13.2     0.00000122     -6888.7801853603 -4.02E-06
    38 OT SD       0.80E-01   13.2     0.00000120     -6888.7801891502 -3.79E-06
    39 OT DIIS     0.80E-01   13.2     0.00000155     -6888.7801897864 -6.36E-07
    40 OT DIIS     0.80E-01   13.2     0.00000119     -6888.7801942266 -4.44E-06
    41 OT DIIS     0.80E-01   13.3     0.00000118     -6888.7801958649 -1.64E-06
    42 OT DIIS     0.80E-01   13.4     0.00000119     -6888.7801960401 -1.75E-07
    43 OT DIIS     0.80E-01   13.3     0.00000119     -6888.7801994109 -3.37E-06
    44 OT DIIS     0.80E-01   13.3     0.00000118     -6888.7802018223 -2.41E-06
    45 OT SD       0.80E-01   13.3     0.00000118     -6888.7802022474 -4.25E-07
    46 OT SD       0.80E-01   13.5     0.00000127     -6888.7802029114 -6.64E-07
    47 OT SD       0.80E-01   13.3     0.00000308     -6888.7802033132 -4.02E-07
    48 OT DIIS     0.80E-01   13.3     0.00001747     -6888.7801939573  9.36E-06
    49 OT DIIS     0.80E-01   13.3     0.00000118     -6888.7802018782 -7.92E-06
    50 OT SD       0.80E-01   13.2     0.00000118     -6888.7802029189 -1.04E-06
    51 OT SD       0.80E-01   13.2     0.00000120     -6888.7802035887 -6.70E-07
    52 OT SD       0.80E-01   13.4     0.00000192     -6888.7802041851 -5.96E-07
    53 OT DIIS     0.80E-01   13.2     0.00000957     -6888.7802019239  2.26E-06
    54 OT SD       0.80E-01   13.4     0.00000118     -6888.7802011153  8.09E-07
    55 OT SD       0.80E-01   13.5     0.00000132     -6888.7802017744 -6.59E-07
    56 OT SD       0.80E-01   13.4     0.00000370     -6888.7802020322 -2.58E-07
    57 OT DIIS     0.80E-01   13.2     0.00002115     -6888.7801877781  1.43E-05
    58 OT DIIS     0.80E-01   13.2     0.00000118     -6888.7801913186 -3.54E-06
    59 OT SD       0.80E-01   13.2     0.00000118     -6888.7802002186 -8.90E-06
    60 OT SD       0.80E-01   13.3     0.00000124     -6888.7802008817 -6.63E-07
    61 OT SD       0.80E-01   13.2     0.00000190     -6888.7802014530 -5.71E-07
    62 OT SD       0.80E-01   13.4     0.00000667     -6888.7802003734  1.08E-06
    63 OT DIIS     0.80E-01   13.2     0.00003338     -6888.7801601209  4.03E-05
    64 OT SD       0.80E-01   13.2     0.00000118     -6888.7801953912 -3.53E-05
    65 OT SD       0.80E-01   13.3     0.00000134     -6888.7801960436 -6.52E-07
    66 OT SD       0.80E-01   13.3     0.00000381     -6888.7801962459 -2.02E-07
    67 OT DIIS     0.80E-01   13.4     0.00002089     -6888.7801819086  1.43E-05
    68 OT DIIS     0.80E-01   13.2     0.00000118     -6888.7801925296 -1.06E-05
    69 OT SD       0.80E-01   13.4     0.00000118     -6888.7801962921 -3.76E-06
    70 OT SD       0.80E-01   13.2     0.00000122     -6888.7801969554 -6.63E-07
    71 OT SD       0.80E-01   13.3     0.00000203     -6888.7801975210 -5.66E-07
    72 OT DIIS     0.80E-01   13.3     0.00000900     -6888.7801953246  2.20E-06
    73 OT SD       0.80E-01   13.2     0.00000118     -6888.7801952489  7.57E-08
    74 OT SD       0.80E-01   13.3     0.00000135     -6888.7801958995 -6.51E-07
    75 OT SD       0.80E-01   13.4     0.00000400     -6888.7801960600 -1.60E-07
    76 OT DIIS     0.80E-01   13.2     0.00002254     -6888.7801794722  1.66E-05
    77 OT DIIS     0.80E-01   13.5     0.00000120     -6888.7801872767 -7.80E-06
    78 OT SD       0.80E-01   13.1     0.00000118     -6888.7801953684 -8.09E-06
    79 OT SD       0.80E-01   13.3     0.00000131     -6888.7801960217 -6.53E-07
    80 OT SD       0.80E-01   13.5     0.00000362     -6888.7801962882 -2.66E-07
    81 OT DIIS     0.80E-01   13.3     0.00002071     -6888.7801827262  1.36E-05
    82 OT SD       0.80E-01   13.3     0.00000119     -6888.7801930411 -1.03E-05
    83 OT SD       0.80E-01   13.2     0.00000151     -6888.7801936708 -6.30E-07
    84 OT SD       0.80E-01   13.4     0.00000514     -6888.7801934150  2.56E-07
    85 OT DIIS     0.80E-01   13.2     0.00002747     -6888.7801671577  2.63E-05
    86 OT DIIS     0.80E-01   13.3     0.00000120     -6888.7801845669 -1.74E-05
    87 OT SD       0.80E-01   13.4     0.00000117     -6888.7801932052 -8.64E-06
    88 OT SD       0.80E-01   13.3     0.00000127     -6888.7801938598 -6.55E-07
    89 OT SD       0.80E-01   13.6     0.00000291     -6888.7801942708 -4.11E-07
    90 OT DIIS     0.80E-01   13.6     0.00001529     -6888.7801869017  7.37E-06
    91 OT SD       0.80E-01   13.7     0.00000118     -6888.7801903531 -3.45E-06
    92 OT SD       0.80E-01   13.3     0.00000146     -6888.7801909866 -6.34E-07
    93 OT SD       0.80E-01   13.4     0.00000490     -6888.7801908403  1.46E-07
    94 OT DIIS     0.80E-01   13.3     0.00002706     -6888.7801660253  2.48E-05
    95 OT DIIS     0.80E-01   13.4     0.00000127     -6888.7801744022 -8.38E-06
    96 OT SD       0.80E-01   13.4     0.00000117     -6888.7801905509 -1.61E-05
    97 OT SD       0.80E-01   13.3     0.00000127     -6888.7801912024 -6.52E-07
    98 OT SD       0.80E-01   13.4     0.00000300     -6888.7801915948 -3.92E-07
    99 OT DIIS     0.80E-01   13.2     0.00001622     -6888.7801833607  8.23E-06
   100 OT SD       0.80E-01   13.2     0.00000118     -6888.7801863926 -3.03E-06

  Leaving inner SCF loop after reaching   100 steps.


  Electronic density on regular grids:      -2431.9999999830        0.0000000170
  Core density on regular grids:             2431.9999999988       -0.0000000012
  Total charge density on r-space grids:        0.0000000158
  Total charge density g-space grids:           0.0000000158

  Overlap energy of the core charge distribution:               0.03226685602234
  Self energy of the core charge distribution:             -16017.19408509233290
  Core Hamiltonian energy:                                   4341.60999822436042
  Hartree energy:                                            6119.92890774791977
  Exchange-correlation energy:                              -1331.28245678435724
  Dispersion energy:                                           -1.87481734422228

  Total energy:                                             -6888.78018639261154

  outer SCF iter =    4 RMS gradient =   0.12E-05 energy =      -6888.7801863926

  ----------------------------------- OT ---------------------------------------
  Minimizer      : DIIS                : direct inversion
                                         in the iterative subspace
                                         using   7 DIIS vectors
                                         safer DIIS on
  Preconditioner : FULL_SINGLE_INVERSE : inversion of 
                                         H + eS - 2*(Sc)(c^T*H*c+const)(Sc)^T
  Precond_solver : DEFAULT
  stepsize       :    0.08000000                  energy_gap     :    0.08000000
  eps_taylor     :   0.10000E-15                  max_taylor     :             4
  ----------------------------------- OT ---------------------------------------

  Step     Update method      Time    Convergence         Total energy    Change
  ------------------------------------------------------------------------------
     1 OT DIIS     0.80E-01   33.9     0.00000142     -6888.7801870275 -6.35E-07
     2 OT DIIS     0.80E-01   13.1     0.00000484     -6888.7801869273  1.00E-07
     3 OT DIIS     0.80E-01   13.1     0.00000122     -6888.7801877930 -8.66E-07
     4 OT DIIS     0.80E-01   13.1     0.00000117     -6888.7801879356 -1.43E-07
     5 OT DIIS     0.80E-01   13.2     0.00000116     -6888.7801880990 -1.63E-07
     6 OT DIIS     0.80E-01   13.2     0.00000116     -6888.7801883401 -2.41E-07
     7 OT DIIS     0.80E-01   13.2     0.00000116     -6888.7801886167 -2.77E-07
     8 OT SD       0.80E-01   13.2     0.00000116     -6888.7801890359 -4.19E-07
     9 OT SD       0.80E-01   13.3     0.00000116     -6888.7801896887 -6.53E-07
    10 OT SD       0.80E-01   13.2     0.00000117     -6888.7801903410 -6.52E-07
    11 OT SD       0.80E-01   13.3     0.00000137     -6888.7801909756 -6.35E-07
    12 OT SD       0.80E-01   13.2     0.00000443     -6888.7801910084 -3.29E-08
    13 OT DIIS     0.80E-01   13.2     0.00002565     -6888.7801696794  2.13E-05
    14 OT SD       0.80E-01   13.2     0.00000116     -6888.7801861696 -1.65E-05
    15 OT SD       0.80E-01   13.2     0.00000118     -6888.7801868206 -6.51E-07
    16 OT SD       0.80E-01   13.2     0.00000155     -6888.7801874350 -6.14E-07
    17 OT SD       0.80E-01   13.1     0.00000594     -6888.7801869009  5.34E-07
    18 OT DIIS     0.80E-01   13.0     0.00003366     -6888.7801485305  3.84E-05
    19 OT DIIS     0.80E-01   13.2     0.00000116     -6888.7801880953 -3.96E-05
    20 OT DIIS     0.80E-01   13.2     0.00000116     -6888.7801886531 -5.58E-07
    21 OT SD       0.80E-01   13.0     0.00000116     -6888.7801887343 -8.12E-08
    22 OT SD       0.80E-01   13.3     0.00000116     -6888.7801893865 -6.52E-07
    23 OT SD       0.80E-01   13.1     0.00000129     -6888.7801900284 -6.42E-07
    24 OT SD       0.80E-01   13.3     0.00000366     -6888.7801902842 -2.56E-07
    25 OT DIIS     0.80E-01   13.1     0.00002140     -6888.7801759055  1.44E-05
    26 OT SD       0.80E-01   13.1     0.00000116     -6888.7801859775 -1.01E-05
    27 OT SD       0.80E-01   13.2     0.00000117     -6888.7801866292 -6.52E-07
    28 OT SD       0.80E-01   13.2     0.00000134     -6888.7801872663 -6.37E-07
    29 OT SD       0.80E-01   13.1     0.00000412     -6888.7801873934 -1.27E-07
    30 OT DIIS     0.80E-01   13.1     0.00002391     -6888.7801690107  1.84E-05
    31 OT DIIS     0.80E-01   13.2     0.00000116     -6888.7801882962 -1.93E-05
    32 OT DIIS     0.80E-01   13.1     0.00000116     -6888.7801884891 -1.93E-07
    33 OT SD       0.80E-01   13.1     0.00000116     -6888.7801885196 -3.04E-08
    34 OT SD       0.80E-01   13.2     0.00000116     -6888.7801891716 -6.52E-07
    35 OT SD       0.80E-01   13.1     0.00000121     -6888.7801898198 -6.48E-07
    36 OT SD       0.80E-01   13.1     0.00000239     -6888.7801903272 -5.07E-07
    37 OT DIIS     0.80E-01   13.2     0.00001277     -6888.7801856197  4.71E-06
    38 OT SD       0.80E-01   13.2     0.00000116     -6888.7801856327 -1.30E-08
    39 OT SD       0.80E-01   13.2     0.00000117     -6888.7801862833 -6.51E-07
    40 OT SD       0.80E-01   13.2     0.00000159     -6888.7801868953 -6.12E-07
    41 OT SD       0.80E-01   13.2     0.00000659     -6888.7801861303  7.65E-07
    42 OT DIIS     0.80E-01   13.1     0.00003916     -6888.7801354829  5.06E-05
    43 OT DIIS     0.80E-01   13.5     0.00000116     -6888.7801879908 -5.25E-05
    44 OT DIIS     0.80E-01   13.4     0.00000116     -6888.7801882052 -2.14E-07
    45 OT SD       0.80E-01   13.3     0.00000116     -6888.7801882729 -6.77E-08
    46 OT SD       0.80E-01   13.3     0.00000116     -6888.7801889246 -6.52E-07
    47 OT SD       0.80E-01   13.5     0.00000120     -6888.7801895729 -6.48E-07
    48 OT SD       0.80E-01   13.4     0.00000230     -6888.7801900946 -5.22E-07
    49 OT DIIS     0.80E-01   13.4     0.00001232     -6888.7801858060  4.29E-06
    50 OT SD       0.80E-01   13.3     0.00000116     -6888.7801852657  5.40E-07
    51 OT SD       0.80E-01   13.3     0.00000117     -6888.7801859166 -6.51E-07
    52 OT SD       0.80E-01   13.4     0.00000137     -6888.7801865496 -6.33E-07
    53 OT SD       0.80E-01   13.3     0.00000457     -6888.7801865458  3.71E-09
    54 OT DIIS     0.80E-01   13.3     0.00002686     -6888.7801632298  2.33E-05
    55 OT DIIS     0.80E-01   13.4     0.00000116     -6888.7801877764 -2.45E-05
    56 OT DIIS     0.80E-01   13.3     0.00000116     -6888.7801879771 -2.01E-07
    57 OT SD       0.80E-01   13.3     0.00000116     -6888.7801880375 -6.04E-08
    58 OT SD       0.80E-01   13.4     0.00000116     -6888.7801886889 -6.51E-07
    59 OT SD       0.80E-01   13.4     0.00000122     -6888.7801893359 -6.47E-07
    60 OT SD       0.80E-01   13.4     0.00000253     -6888.7801898204 -4.85E-07
    61 OT DIIS     0.80E-01   13.3     0.00001390     -6888.7801841569  5.66E-06
    62 OT SD       0.80E-01   13.3     0.00000116     -6888.7801849921 -8.35E-07
    63 OT SD       0.80E-01   13.4     0.00000117     -6888.7801856427 -6.51E-07
    64 OT SD       0.80E-01   13.5     0.00000138     -6888.7801862750 -6.32E-07
    65 OT SD       0.80E-01   13.6     0.00000463     -6888.7801862540  2.10E-08
    66 OT DIIS     0.80E-01   13.5     0.00002713     -6888.7801623874  2.39E-05
    67 OT DIIS     0.80E-01   13.3     0.00000116     -6888.7801875832 -2.52E-05
    68 OT DIIS     0.80E-01   13.5     0.00000116     -6888.7801877452 -1.62E-07
    69 OT SD       0.80E-01   13.4     0.00000116     -6888.7801877764 -3.11E-08
    70 OT SD       0.80E-01   13.4     0.00000116     -6888.7801884275 -6.51E-07
    71 OT SD       0.80E-01   13.4     0.00000121     -6888.7801890749 -6.47E-07
    72 OT SD       0.80E-01   13.4     0.00000232     -6888.7801895916 -5.17E-07
    73 OT DIIS     0.80E-01   13.4     0.00001223     -6888.7801853138  4.28E-06
    74 OT SD       0.80E-01   13.3     0.00000116     -6888.7801847362  5.78E-07
    75 OT SD       0.80E-01   13.4     0.00000117     -6888.7801853866 -6.50E-07
    76 OT SD       0.80E-01   13.4     0.00000136     -6888.7801860203 -6.34E-07
    77 OT SD       0.80E-01   13.6     0.00000446     -6888.7801860539 -3.35E-08
    78 OT DIIS     0.80E-01   13.4     0.00002631     -6888.7801638181  2.22E-05
    79 OT DIIS     0.80E-01   13.5     0.00000116     -6888.7801874110 -2.36E-05
    80 OT SD       0.80E-01   13.4     0.00000116     -6888.7801875187 -1.08E-07
    81 OT SD       0.80E-01   13.4     0.00000116     -6888.7801881694 -6.51E-07
    82 OT SD       0.80E-01   13.4     0.00000119     -6888.7801888177 -6.48E-07
    83 OT SD       0.80E-01   13.4     0.00000196     -6888.7801893821 -5.64E-07
    84 OT DIIS     0.80E-01   13.3     0.00000934     -6888.7801870989  2.28E-06
    85 OT SD       0.80E-01   13.5     0.00000116     -6888.7801844896  2.61E-06
    86 OT SD       0.80E-01   13.4     0.00000117     -6888.7801851396 -6.50E-07
    87 OT SD       0.80E-01   13.4     0.00000140     -6888.7801857694 -6.30E-07
    88 OT SD       0.80E-01   13.3     0.00000487     -6888.7801856765  9.29E-08
    89 OT DIIS     0.80E-01   13.3     0.00002896     -6888.7801586664  2.70E-05
    90 OT DIIS     0.80E-01   13.4     0.00000116     -6888.7801869946 -2.83E-05
    91 OT DIIS     0.80E-01   13.4     0.00000116     -6888.7801872260 -2.31E-07
    92 OT SD       0.80E-01   13.4     0.00000116     -6888.7801873121 -8.62E-08
    93 OT SD       0.80E-01   13.4     0.00000116     -6888.7801879626 -6.50E-07
    94 OT SD       0.80E-01   13.4     0.00000121     -6888.7801886094 -6.47E-07
    95 OT SD       0.80E-01   13.5     0.00000238     -6888.7801891189 -5.09E-07
    96 OT DIIS     0.80E-01   13.4     0.00001290     -6888.7801843578  4.76E-06
    97 OT SD       0.80E-01   13.4     0.00000116     -6888.7801842128  1.45E-07
    98 OT SD       0.80E-01   13.4     0.00000116     -6888.7801848625 -6.50E-07
    99 OT SD       0.80E-01   13.4     0.00000135     -6888.7801854963 -6.34E-07
   100 OT SD       0.80E-01   13.4     0.00000436     -6888.7801855559 -5.96E-08

  Leaving inner SCF loop after reaching   100 steps.


  Electronic density on regular grids:      -2431.9999999823        0.0000000177
  Core density on regular grids:             2431.9999999988       -0.0000000012
  Total charge density on r-space grids:        0.0000000166
  Total charge density g-space grids:           0.0000000166

  Overlap energy of the core charge distribution:               0.03226685602234
  Self energy of the core charge distribution:             -16017.19408509233290
  Core Hamiltonian energy:                                   4341.61015385532573
  Hartree energy:                                            6119.92876728813735
  Exchange-correlation energy:                              -1331.28247111883252
  Dispersion energy:                                           -1.87481734422228

  Total energy:                                             -6888.78018555590370

  outer SCF iter =    5 RMS gradient =   0.44E-05 energy =      -6888.7801855559

  ----------------------------------- OT ---------------------------------------
  Minimizer      : DIIS                : direct inversion
                                         in the iterative subspace
                                         using   7 DIIS vectors
                                         safer DIIS on
  Preconditioner : FULL_SINGLE_INVERSE : inversion of 
                                         H + eS - 2*(Sc)(c^T*H*c+const)(Sc)^T
  Precond_solver : DEFAULT
  stepsize       :    0.08000000                  energy_gap     :    0.08000000
  eps_taylor     :   0.10000E-15                  max_taylor     :             4
  ----------------------------------- OT ---------------------------------------

  Step     Update method      Time    Convergence         Total energy    Change
  ------------------------------------------------------------------------------
     1 OT DIIS     0.80E-01   34.4     0.00002557     -6888.7801644247  2.11E-05
     2 OT DIIS     0.80E-01   13.3     0.00015527     -6888.7793627369  8.02E-04
     3 OT DIIS     0.80E-01   13.5     0.00000511     -6888.7801866480 -8.24E-04
     4 OT DIIS     0.80E-01   13.5     0.00000129     -6888.7801876340 -9.86E-07
     5 OT DIIS     0.80E-01   13.3     0.00000116     -6888.7801877916 -1.58E-07
     6 OT DIIS     0.80E-01   13.4     0.00000116     -6888.7801879298 -1.38E-07
     7 OT SD       0.80E-01   13.4     0.00000116     -6888.7801880500 -1.20E-07
     8 OT DIIS     0.80E-01   13.4     0.00000116     -6888.7801886971 -6.47E-07
     9 OT SD       0.80E-01   13.3     0.00000116     -6888.7801887663 -6.92E-08
    10 OT SD       0.80E-01   13.4     0.00000116     -6888.7801894134 -6.47E-07
    11 OT SD       0.80E-01   13.3     0.00000117     -6888.7801900596 -6.46E-07
    12 OT SD       0.80E-01   13.6     0.00000152     -6888.7801906731 -6.14E-07
    13 OT SD       0.80E-01   13.6     0.00000580     -6888.7801902111  4.62E-07
    14 OT DIIS     0.80E-01   13.6     0.00003373     -6888.7801524289  3.78E-05
    15 OT SD       0.80E-01   13.6     0.00000116     -6888.7801814920 -2.91E-05
    16 OT DIIS     0.80E-01   13.5     0.00000119     -6888.7801821346 -6.43E-07
    17 OT DIIS     0.80E-01   13.5     0.00000116     -6888.7801826436 -5.09E-07
    18 OT SD       0.80E-01   13.4     0.00000116     -6888.7801827974 -1.54E-07
    19 OT SD       0.80E-01   13.6     0.00000123     -6888.7801834375 -6.40E-07
    20 OT DIIS     0.80E-01   13.5     0.00000278     -6888.7801838714 -4.34E-07
    21 OT DIIS     0.80E-01   13.3     0.00000115     -6888.7801840664 -1.95E-07
    22 OT DIIS     0.80E-01   13.4     0.00000115     -6888.7801852969 -1.23E-06
    23 OT DIIS     0.80E-01   13.4     0.00000115     -6888.7801856194 -3.23E-07
    24 OT SD       0.80E-01   13.3     0.00000115     -6888.7801867810 -1.16E-06
    25 OT SD       0.80E-01   13.4     0.00000116     -6888.7801874262 -6.45E-07
    26 OT SD       0.80E-01   13.5     0.00000131     -6888.7801880584 -6.32E-07
    27 OT SD       0.80E-01   13.4     0.00000371     -6888.7801882803 -2.22E-07
    28 OT DIIS     0.80E-01   13.2     0.00002135     -6888.7801738417  1.44E-05
    29 OT SD       0.80E-01   13.2     0.00000115     -6888.7801840618 -1.02E-05
    30 OT SD       0.80E-01   13.4     0.00000117     -6888.7801847058 -6.44E-07
    31 OT SD       0.80E-01   13.5     0.00000164     -6888.7801853030 -5.97E-07
    32 OT SD       0.80E-01   13.6     0.00000672     -6888.7801844262  8.77E-07
    33 OT DIIS     0.80E-01   13.4     0.00003858     -6888.7801341254  5.03E-05
    34 OT DIIS     0.80E-01   13.4     0.00000115     -6888.7801855531 -5.14E-05
    35 OT SD       0.80E-01   13.5     0.00000115     -6888.7801857161 -1.63E-07
    36 OT SD       0.80E-01   13.4     0.00000115     -6888.7801863617 -6.46E-07
    37 OT SD       0.80E-01   13.4     0.00000116     -6888.7801870070 -6.45E-07
    38 OT SD       0.80E-01   13.5     0.00000128     -6888.7801876423 -6.35E-07
    39 OT SD       0.80E-01   13.5     0.00000345     -6888.7801879306 -2.88E-07
    40 OT DIIS     0.80E-01   13.3     0.00001951     -6888.7801758570  1.21E-05
    41 OT SD       0.80E-01   13.4     0.00000115     -6888.7801835662 -7.71E-06
    42 OT SD       0.80E-01   13.5     0.00000117     -6888.7801842100 -6.44E-07
    43 OT SD       0.80E-01   13.4     0.00000169     -6888.7801848028 -5.93E-07
    44 OT DIIS     0.80E-01   13.4     0.00000747     -6888.7801836141  1.19E-06
    45 OT DIIS     0.80E-01   13.5     0.00000115     -6888.7801818028  1.81E-06
    46 OT SD       0.80E-01   13.4     0.00000115     -6888.7801844717 -2.67E-06
    47 OT SD       0.80E-01   13.3     0.00000118     -6888.7801851147 -6.43E-07
    48 OT DIIS     0.80E-01   13.4     0.00000169     -6888.7801857050 -5.90E-07
    49 OT SD       0.80E-01   13.3     0.00000116     -6888.7801869286 -1.22E-06
    50 OT SD       0.80E-01   13.5     0.00000124     -6888.7801875660 -6.37E-07
    51 OT DIIS     0.80E-01   13.4     0.00000298     -6888.7801879570 -3.91E-07
    52 OT DIIS     0.80E-01   13.4     0.00000116     -6888.7801890249 -1.07E-06
    53 OT SD       0.80E-01   13.6     0.00000115     -6888.7801910993 -2.07E-06
    54 OT SD       0.80E-01   13.3     0.00000119     -6888.7801917408 -6.42E-07
    55 OT SD       0.80E-01   13.3     0.00000197     -6888.7801922977 -5.57E-07
    56 OT DIIS     0.80E-01   13.3     0.00000950     -6888.7801899468  2.35E-06
    57 OT SD       0.80E-01   13.2     0.00000116     -6888.7801908210 -8.74E-07
    58 OT SD       0.80E-01   13.3     0.00000120     -6888.7801914611 -6.40E-07
    59 OT SD       0.80E-01   13.2     0.00000209     -6888.7801919944 -5.33E-07
    60 OT DIIS     0.80E-01   13.3     0.00000977     -6888.7801893388  2.66E-06
    61 OT DIIS     0.80E-01   13.2     0.00000116     -6888.7801888504  4.88E-07
    62 OT SD       0.80E-01   13.2     0.00000116     -6888.7801903465 -1.50E-06
    63 OT SD       0.80E-01   13.4     0.00000125     -6888.7801909829 -6.36E-07
    64 OT SD       0.80E-01   13.4     0.00000300     -6888.7801913632 -3.80E-07
    65 OT DIIS     0.80E-01   13.2     0.00001636     -6888.7801829447  8.42E-06
    66 OT SD       0.80E-01   13.3     0.00000115     -6888.7801909141 -7.97E-06
    67 OT SD       0.80E-01   13.3     0.00000117     -6888.7801915570 -6.43E-07
    68 OT SD       0.80E-01   13.3     0.00000169     -6888.7801921484 -5.91E-07
    69 OT DIIS     0.80E-01   13.3     0.00000718     -6888.7801910541  1.09E-06
    70 OT SD       0.80E-01   13.4     0.00000116     -6888.7801904335  6.21E-07
    71 OT SD       0.80E-01   13.3     0.00000125     -6888.7801910704 -6.37E-07
    72 OT SD       0.80E-01   13.2     0.00000304     -6888.7801914507 -3.80E-07
    73 OT DIIS     0.80E-01   13.1     0.00001725     -6888.7801823125  9.14E-06
    74 OT DIIS     0.80E-01   13.3     0.00000117     -6888.7801824756 -1.63E-07
    75 OT SD       0.80E-01   13.2     0.00000116     -6888.7801905194 -8.04E-06
    76 OT SD       0.80E-01   13.3     0.00000121     -6888.7801911593 -6.40E-07
    77 OT SD       0.80E-01   13.3     0.00000230     -6888.7801916665 -5.07E-07
    78 OT DIIS     0.80E-01   13.4     0.00001168     -6888.7801877112  3.96E-06
    79 OT SD       0.80E-01   13.4     0.00000116     -6888.7801883366 -6.25E-07
    80 OT SD       0.80E-01   13.1     0.00000136     -6888.7801889615 -6.25E-07
    81 OT SD       0.80E-01   13.1     0.00000442     -6888.7801889832 -2.17E-08
    82 OT DIIS     0.80E-01   13.3     0.00002530     -6888.7801679725  2.10E-05
    83 OT DIIS     0.80E-01   13.3     0.00000117     -6888.7801804156 -1.24E-05
    84 OT SD       0.80E-01   13.3     0.00000115     -6888.7801885431 -8.13E-06
    85 OT SD       0.80E-01   13.2     0.00000118     -6888.7801891844 -6.41E-07
    86 OT SD       0.80E-01   13.2     0.00000168     -6888.7801897744 -5.90E-07
    87 OT SD       0.80E-01   13.4     0.00000702     -6888.7801887627  1.01E-06
    88 OT DIIS     0.80E-01   13.4     0.00004108     -6888.7801325442  5.62E-05
    89 OT SD       0.80E-01   13.2     0.00000116     -6888.7801847750 -5.22E-05
    90 OT SD       0.80E-01   13.1     0.00000131     -6888.7801854037 -6.29E-07
    91 OT SD       0.80E-01   13.1     0.00000390     -6888.7801855792 -1.76E-07
    92 OT DIIS     0.80E-01   13.3     0.00002266     -6888.7801692441  1.63E-05
    93 OT DIIS     0.80E-01   13.3     0.00000116     -6888.7801820480 -1.28E-05
    94 OT SD       0.80E-01   13.2     0.00000115     -6888.7801855294 -3.48E-06
    95 OT SD       0.80E-01   13.2     0.00000117     -6888.7801861703 -6.41E-07
    96 OT SD       0.80E-01   13.1     0.00000158     -6888.7801867705 -6.00E-07
    97 OT SD       0.80E-01   13.1     0.00000615     -6888.7801861271  6.43E-07
    98 OT DIIS     0.80E-01   13.2     0.00003480     -6888.7801449776  4.11E-05
    99 OT SD       0.80E-01   13.4     0.00000115     -6888.7801806095 -3.56E-05
   100 OT SD       0.80E-01   13.4     0.00000125     -6888.7801812426 -6.33E-07

  Leaving inner SCF loop after reaching   100 steps.


  Electronic density on regular grids:      -2431.9999999823        0.0000000177
  Core density on regular grids:             2431.9999999988       -0.0000000012
  Total charge density on r-space grids:        0.0000000166
  Total charge density g-space grids:           0.0000000166

  Overlap energy of the core charge distribution:               0.03226685602234
  Self energy of the core charge distribution:             -16017.19408509233290
  Core Hamiltonian energy:                                   4341.61008955298985
  Hartree energy:                                            6119.92885474173363
  Exchange-correlation energy:                              -1331.28248995679814
  Dispersion energy:                                           -1.87481734422228

  Total energy:                                             -6888.78018124260689

  outer SCF iter =    6 RMS gradient =   0.13E-05 energy =      -6888.7801812426

  ----------------------------------- OT ---------------------------------------
  Minimizer      : DIIS                : direct inversion
                                         in the iterative subspace
                                         using   7 DIIS vectors
                                         safer DIIS on
  Preconditioner : FULL_SINGLE_INVERSE : inversion of 
                                         H + eS - 2*(Sc)(c^T*H*c+const)(Sc)^T
  Precond_solver : DEFAULT
  stepsize       :    0.08000000                  energy_gap     :    0.08000000
  eps_taylor     :   0.10000E-15                  max_taylor     :             4
  ----------------------------------- OT ---------------------------------------

  Step     Update method      Time    Convergence         Total energy    Change
  ------------------------------------------------------------------------------
     1 OT DIIS     0.80E-01   34.2     0.00000301     -6888.7801816129 -3.70E-07
     2 OT DIIS     0.80E-01   13.0     0.00001608     -6888.7801733468  8.27E-06
     3 OT DIIS     0.80E-01   13.3     0.00000151     -6888.7801825898 -9.24E-06
     4 OT DIIS     0.80E-01   13.1     0.00000116     -6888.7801827317 -1.42E-07
     5 OT DIIS     0.80E-01   13.2     0.00000115     -6888.7801828749 -1.43E-07
     6 OT DIIS     0.80E-01   13.2     0.00000115     -6888.7801830222 -1.47E-07
     7 OT DIIS     0.80E-01   13.1     0.00000115     -6888.7801832818 -2.60E-07
     8 OT DIIS     0.80E-01   13.2     0.00000115     -6888.7801835510 -2.69E-07
     9 OT SD       0.80E-01   13.1     0.00000115     -6888.7801837543 -2.03E-07
    10 OT SD       0.80E-01   12.9     0.00000115     -6888.7801843942 -6.40E-07
    11 OT SD       0.80E-01   13.1     0.00000116     -6888.7801850329 -6.39E-07
    12 OT SD       0.80E-01   13.4     0.00000159     -6888.7801856315 -5.99E-07
    13 OT SD       0.80E-01   13.3     0.00000658     -6888.7801848422  7.89E-07
    14 OT DIIS     0.80E-01   13.2     0.00003864     -6888.7801351042  4.97E-05
    15 OT SD       0.80E-01   13.2     0.00000115     -6888.7801810732 -4.60E-05
    16 OT SD       0.80E-01   13.4     0.00000122     -6888.7801817061 -6.33E-07
    17 OT SD       0.80E-01   13.3     0.00000240     -6888.7801821825 -4.76E-07
    18 OT DIIS     0.80E-01   13.1     0.00001183     -6888.7801779542  4.23E-06
    19 OT DIIS     0.80E-01   13.2     0.00000115     -6888.7801779682 -1.40E-08
    20 OT SD       0.80E-01   13.3     0.00000115     -6888.7801813985 -3.43E-06
    21 OT SD       0.80E-01   13.3     0.00000117     -6888.7801820360 -6.37E-07
    22 OT DIIS     0.80E-01   13.4     0.00000155     -6888.7801826350 -5.99E-07
    23 OT SD       0.80E-01   13.2     0.00000115     -6888.7801834202 -7.85E-07
    24 OT SD       0.80E-01   13.3     0.00000118     -6888.7801840568 -6.37E-07
    25 OT SD       0.80E-01   13.1     0.00000190     -6888.7801846170 -5.60E-07
    26 OT DIIS     0.80E-01   13.1     0.00000913     -6888.7801824941  2.12E-06
    27 OT DIIS     0.80E-01   13.3     0.00000115     -6888.7801850394 -2.55E-06
    28 OT SD       0.80E-01   13.3     0.00000115     -6888.7801855654 -5.26E-07
    29 OT SD       0.80E-01   13.5     0.00000116     -6888.7801862035 -6.38E-07
    30 OT SD       0.80E-01   13.4     0.00000151     -6888.7801868098 -6.06E-07
    31 OT SD       0.80E-01   13.2     0.00000595     -6888.7801863004  5.09E-07
    32 OT DIIS     0.80E-01   13.4     0.00003535     -6888.7801453416  4.10E-05
    33 OT SD       0.80E-01   13.2     0.00000115     -6888.7801809809 -3.56E-05
    34 OT SD       0.80E-01   13.2     0.00000119     -6888.7801816155 -6.35E-07
    35 OT SD       0.80E-01   13.1     0.00000196     -6888.7801821604 -5.45E-07
    36 OT DIIS     0.80E-01   13.1     0.00000868     -6888.7801801384  2.02E-06
    37 OT DIIS     0.80E-01   13.3     0.00000115     -6888.7801779310  2.21E-06
    38 OT SD       0.80E-01   13.2     0.00000115     -6888.7801816621 -3.73E-06
    39 OT SD       0.80E-01   13.3     0.00000116     -6888.7801822994 -6.37E-07
    40 OT SD       0.80E-01   13.2     0.00000145     -6888.7801829110 -6.12E-07
    41 OT DIIS     0.80E-01   13.0     0.00000533     -6888.7801826335  2.77E-07
    42 OT SD       0.80E-01   13.2     0.00000115     -6888.7801818887  7.45E-07
    43 OT SD       0.80E-01   13.4     0.00000116     -6888.7801825255 -6.37E-07
    44 OT DIIS     0.80E-01   13.2     0.00000153     -6888.7801831269 -6.01E-07
    45 OT SD       0.80E-01   13.2     0.00000115     -6888.7801831160  1.10E-08
    46 OT DIIS     0.80E-01   13.3     0.00000129     -6888.7801837402 -6.24E-07
    47 OT DIIS     0.80E-01   13.2     0.00000116     -6888.7801843544 -6.14E-07
    48 OT DIIS     0.80E-01   13.2     0.00000119     -6888.7801877898 -3.44E-06
    49 OT SD       0.80E-01   13.3     0.00000116     -6888.7801934228 -5.63E-06
    50 OT SD       0.80E-01   13.2     0.00000156     -6888.7801939915 -5.69E-07
    51 OT DIIS     0.80E-01   13.3     0.00000546     -6888.7801935454  4.46E-07
    52 OT DIIS     0.80E-01   13.3     0.00000113     -6888.7801957827 -2.24E-06
    53 OT DIIS     0.80E-01   13.3     0.00000113     -6888.7801963097 -5.27E-07
    54 OT SD       0.80E-01   13.4     0.00000113     -6888.7801969163 -6.07E-07
    55 OT DIIS     0.80E-01   13.3     0.00000135     -6888.7801975129 -5.97E-07
    56 OT SD       0.80E-01   13.5     0.00000113     -6888.7801975436 -3.07E-08
    57 OT SD       0.80E-01   13.1     0.00000115     -6888.7801981566 -6.13E-07
    58 OT SD       0.80E-01   13.3     0.00000168     -6888.7801987148 -5.58E-07
    59 OT SD       0.80E-01   13.2     0.00000694     -6888.7801976514  1.06E-06
    60 OT DIIS     0.80E-01   13.2     0.00003863     -6888.7801459186  5.17E-05
    61 OT SD       0.80E-01   13.4     0.00000113     -6888.7801909500 -4.50E-05
    62 OT SD       0.80E-01   13.2     0.00000118     -6888.7801915577 -6.08E-07
    63 OT SD       0.80E-01   13.3     0.00000212     -6888.7801920531 -4.95E-07
    64 OT DIIS     0.80E-01   13.3     0.00001033     -6888.7801890304  3.02E-06
    65 OT DIIS     0.80E-01   13.2     0.00000113     -6888.7801862344  2.80E-06
    66 OT SD       0.80E-01   13.3     0.00000113     -6888.7801900962 -3.86E-06
    67 OT SD       0.80E-01   13.3     0.00000125     -6888.7801906955 -5.99E-07
    68 OT SD       0.80E-01   13.4     0.00000323     -6888.7801909822 -2.87E-07
    69 OT DIIS     0.80E-01   13.2     0.00001746     -6888.7801811199  9.86E-06
    70 OT SD       0.80E-01   13.2     0.00000112     -6888.7801904818 -9.36E-06
    71 OT SD       0.80E-01   13.1     0.00000114     -6888.7801910908 -6.09E-07
    72 OT DIIS     0.80E-01   13.3     0.00000152     -6888.7801916636 -5.73E-07
    73 OT SD       0.80E-01   13.2     0.00000112     -6888.7801930358 -1.37E-06
    74 OT DIIS     0.80E-01   13.4     0.00000119     -6888.7801936381 -6.02E-07
    75 OT DIIS     0.80E-01   13.5     0.00000113     -6888.7801941426 -5.04E-07
    76 OT DIIS     0.80E-01   13.7     0.00000112     -6888.7801956082 -1.47E-06
    77 OT DIIS     0.80E-01   13.6     0.00000112     -6888.7801961359 -5.28E-07
    78 OT SD       0.80E-01   13.5     0.00000112     -6888.7801964764 -3.40E-07
    79 OT SD       0.80E-01   13.2     0.00000114     -6888.7801970832 -6.07E-07
    80 OT SD       0.80E-01   13.3     0.00000168     -6888.7801976368 -5.54E-07
    81 OT DIIS     0.80E-01   13.1     0.00000729     -6888.7801964562  1.18E-06
    82 OT SD       0.80E-01   13.5     0.00000113     -6888.7801954851  9.71E-07
    83 OT SD       0.80E-01   13.2     0.00000128     -6888.7801960799 -5.95E-07
    84 OT SD       0.80E-01   13.4     0.00000379     -6888.7801962457 -1.66E-07
    85 OT DIIS     0.80E-01   13.3     0.00002199     -6888.7801808119  1.54E-05
    86 OT DIIS     0.80E-01   13.4     0.00000117     -6888.7801803768  4.35E-07
    87 OT SD       0.80E-01   13.3     0.00000113     -6888.7801942416 -1.39E-05
    88 OT SD       0.80E-01   13.2     0.00000125     -6888.7801948347 -5.93E-07
    89 OT SD       0.80E-01   13.3     0.00000297     -6888.7801951627 -3.28E-07
    90 OT DIIS     0.80E-01   13.5     0.00001562     -6888.7801873982  7.76E-06
    91 OT SD       0.80E-01   13.5     0.00000114     -6888.7801902144 -2.82E-06
    92 OT SD       0.80E-01   13.3     0.00000164     -6888.7801907607 -5.46E-07
[...]
     4 OT SD       0.80E-01   13.7     0.00000183     -6908.9200633983 -3.29E-07
     5 OT SD       0.80E-01   13.4     0.00000186     -6908.9200650199 -1.62E-06
     6 OT SD       0.80E-01   13.2     0.00000221     -6908.9200666063 -1.59E-06
     7 OT SD       0.80E-01   13.2     0.00000616     -6908.9200669308 -3.25E-07
     8 OT SD       0.80E-01   13.1     0.00002960     -6908.9200351393  3.18E-05
     9 OT DIIS     0.80E-01   13.1     0.00015069     -6908.9191719761  8.63E-04
    10 OT SD       0.80E-01   13.2     0.00001270     -6908.9199090205 -7.37E-04
    11 OT DIIS     0.80E-01   13.2     0.00001699     -6908.9199074242  1.60E-06
    12 OT DIIS     0.80E-01   13.2     0.00000688     -6908.9199657055 -5.83E-05
    13 OT SD       0.80E-01   13.1     0.00000223     -6908.9200604528 -9.47E-05
    14 OT SD       0.80E-01   13.4     0.00000506     -6908.9200610462 -5.93E-07
    15 OT SD       0.80E-01   13.4     0.00002056     -6908.9200453598  1.57E-05
    16 OT DIIS     0.80E-01   13.2     0.00009758     -6908.9196721049  3.73E-04
    17 OT DIIS     0.80E-01   13.3     0.00000359     -6908.9200268590 -3.55E-04
    18 OT SD       0.80E-01   13.1     0.00000191     -6908.9200581746 -3.13E-05
    19 OT SD       0.80E-01   13.0     0.00000338     -6908.9200594049 -1.23E-06
    20 OT DIIS     0.80E-01   13.0     0.00001357     -6908.9200537509  5.65E-06
    21 OT DIIS     0.80E-01   13.1     0.00000216     -6908.9200470792  6.67E-06
    22 OT SD       0.80E-01   12.9     0.00000211     -6908.9200499480 -2.87E-06
    23 OT SD       0.80E-01   13.2     0.00000595     -6908.9200501647 -2.17E-07
    24 OT SD       0.80E-01   13.4     0.00002902     -6908.9200198673  3.03E-05
    25 OT DIIS     0.80E-01   13.3     0.00015061     -6908.9191706235  8.49E-04
    26 OT DIIS     0.80E-01   13.2     0.00000197     -6908.9200438785 -8.73E-04
    27 OT SD       0.80E-01   13.1     0.00000183     -6908.9200508995 -7.02E-06
    28 OT SD       0.80E-01   13.0     0.00000330     -6908.9200520828 -1.18E-06
    29 OT DIIS     0.80E-01   12.9     0.00001473     -6908.9200456092  6.47E-06
    30 OT DIIS     0.80E-01   13.1     0.00000197     -6908.9200485399 -2.93E-06
    31 OT SD       0.80E-01   13.1     0.00000188     -6908.9200484881  5.18E-08
    32 OT SD       0.80E-01   13.1     0.00000370     -6908.9200495161 -1.03E-06
    33 OT SD       0.80E-01   13.4     0.00001625     -6908.9200409469  8.57E-06
    34 OT DIIS     0.80E-01   13.2     0.00008271     -6908.9197835054  2.57E-04
    35 OT DIIS     0.80E-01   13.2     0.00000191     -6908.9200469477 -2.63E-04
    36 OT SD       0.80E-01   13.3     0.00000179     -6908.9200488665 -1.92E-06
    37 OT SD       0.80E-01   13.3     0.00000248     -6908.9200501852 -1.32E-06
    38 OT SD       0.80E-01   13.3     0.00000790     -6908.9200491998  9.85E-07
    39 OT DIIS     0.80E-01   13.2     0.00003667     -6908.9199978370  5.14E-05
    40 OT SD       0.80E-01   13.4     0.00000181     -6908.9200481560 -5.03E-05
    41 OT SD       0.80E-01   13.1     0.00000283     -6908.9200493994 -1.24E-06
    42 OT SD       0.80E-01   13.0     0.00001066     -6908.9200464659  2.93E-06
    43 OT DIIS     0.80E-01   12.9     0.00005167     -6908.9199440958  1.02E-04
    44 OT DIIS     0.80E-01   13.0     0.00000244     -6908.9200201651 -7.61E-05
    45 OT SD       0.80E-01   13.0     0.00000191     -6908.9200455779 -2.54E-05
    46 OT SD       0.80E-01   13.1     0.00000445     -6908.9200463419 -7.64E-07
    47 OT SD       0.80E-01   13.0     0.00002055     -6908.9200315813  1.48E-05
    48 OT DIIS     0.80E-01   13.4     0.00010352     -6908.9196222167  4.09E-04
    49 OT SD       0.80E-01   13.2     0.00000182     -6908.9200434985 -4.21E-04
    50 OT SD       0.80E-01   12.9     0.00000340     -6908.9200445634 -1.06E-06
    51 OT SD       0.80E-01   13.3     0.00001479     -6908.9200376922  6.87E-06
    52 OT DIIS     0.80E-01   13.2     0.00007482     -6908.9198259536  2.12E-04
    53 OT DIIS     0.80E-01   13.1     0.00000203     -6908.9200324351 -2.06E-04
    54 OT SD       0.80E-01   13.1     0.00000177     -6908.9200434984 -1.11E-05
    55 OT SD       0.80E-01   13.3     0.00000265     -6908.9200447279 -1.23E-06
    56 OT SD       0.80E-01   13.0     0.00000935     -6908.9200426885  2.04E-06
    57 OT DIIS     0.80E-01   13.1     0.00004365     -6908.9199682038  7.45E-05
    58 OT SD       0.80E-01   13.0     0.00000185     -6908.9200409629 -7.28E-05
    59 OT SD       0.80E-01   13.0     0.00000408     -6908.9200418139 -8.51E-07
    60 OT SD       0.80E-01   13.1     0.00001904     -6908.9200295751  1.22E-05
    61 OT DIIS     0.80E-01   13.0     0.00009829     -6908.9196676652  3.62E-04
    62 OT DIIS     0.80E-01   13.2     0.00000240     -6908.9200129989 -3.45E-04
    63 OT SD       0.80E-01   13.0     0.00000175     -6908.9200399856 -2.70E-05
    64 OT SD       0.80E-01   12.9     0.00000269     -6908.9200411788 -1.19E-06
    65 OT SD       0.80E-01   13.0     0.00001032     -6908.9200385364  2.64E-06
    66 OT DIIS     0.80E-01   13.0     0.00005158     -6908.9199386108  9.99E-05
    67 OT SD       0.80E-01   13.0     0.00000181     -6908.9200355990 -9.70E-05
    68 OT SD       0.80E-01   13.4     0.00000358     -6908.9200365242 -9.25E-07
    69 OT SD       0.80E-01   13.5     0.00001519     -6908.9200288198  7.70E-06
    70 OT DIIS     0.80E-01   13.4     0.00007406     -6908.9198160284  2.13E-04
    71 OT DIIS     0.80E-01   13.5     0.00000272     -6908.9200034338 -1.87E-04
    72 OT SD       0.80E-01   13.1     0.00000170     -6908.9200352708 -3.18E-05
    73 OT SD       0.80E-01   13.2     0.00000235     -6908.9200364911 -1.22E-06
    74 OT SD       0.80E-01   13.2     0.00000819     -6908.9200353348  1.16E-06
    75 OT DIIS     0.80E-01   13.4     0.00004045     -6908.9199741854  6.11E-05
    76 OT SD       0.80E-01   13.1     0.00000185     -6908.9200298425 -5.57E-05
    77 OT SD       0.80E-01   13.0     0.00000440     -6908.9200304773 -6.35E-07
    78 OT SD       0.80E-01   13.1     0.00002028     -6908.9200159550  1.45E-05
    79 OT DIIS     0.80E-01   13.1     0.00010239     -6908.9196168550  3.99E-04
    80 OT DIIS     0.80E-01   13.6     0.00000363     -6908.9199767273 -3.60E-04
    81 OT DIIS     0.80E-01   13.6     0.00000166     -6908.9200303203 -5.36E-05
    82 OT SD       0.80E-01   12.9     0.00000166     -6908.9200308094 -4.89E-07
    83 OT SD       0.80E-01   13.0     0.00000201     -6908.9200320521 -1.24E-06
    84 OT DIIS     0.80E-01   13.0     0.00000587     -6908.9200321112 -5.91E-08
    85 OT SD       0.80E-01   13.1     0.00000165     -6908.9200324656 -3.54E-07
    86 OT SD       0.80E-01   13.1     0.00000185     -6908.9200337479 -1.28E-06
    87 OT SD       0.80E-01   13.1     0.00000460     -6908.9200343787 -6.31E-07
    88 OT SD       0.80E-01   13.0     0.00002281     -6908.9200165845  1.78E-05
    89 OT DIIS     0.80E-01   13.0     0.00012177     -6908.9194729755  5.44E-04
    90 OT SD       0.80E-01   13.0     0.00000487     -6908.9199561586 -4.83E-04
    91 OT DIIS     0.80E-01   13.1     0.00000799     -6908.9199557374  4.21E-07
    92 OT DIIS     0.80E-01   13.0     0.00000656     -6908.9199419427  1.38E-05
    93 OT SD       0.80E-01   12.9     0.00000175     -6908.9200291532 -8.72E-05
    94 OT SD       0.80E-01   12.9     0.00000362     -6908.9200300438 -8.91E-07
    95 OT DIIS     0.80E-01   13.0     0.00001685     -6908.9200207757  9.27E-06
    96 OT SD       0.80E-01   13.0     0.00000177     -6908.9200107531  1.00E-05
    97 OT SD       0.80E-01   13.0     0.00000414     -6908.9200113893 -6.36E-07
    98 OT SD       0.80E-01   12.9     0.00001944     -6908.9199982493  1.31E-05
    99 OT DIIS     0.80E-01   12.9     0.00009954     -6908.9196242963  3.74E-04
   100 OT DIIS     0.80E-01   13.0     0.00001198     -6908.9198622272 -2.38E-04

  Leaving inner SCF loop after reaching   100 steps.


  Electronic density on regular grids:      -2432.0000000376       -0.0000000376
  Core density on regular grids:             2431.9999999988       -0.0000000012
  Total charge density on r-space grids:       -0.0000000388
  Total charge density g-space grids:          -0.0000000388

  Overlap energy of the core charge distribution:               0.02661029870191
  Self energy of the core charge distribution:             -16017.19408509233290
  Core Hamiltonian energy:                                   4298.07270656621586
  Hartree energy:                                            6139.20988665478581
  Exchange-correlation energy:                              -1327.14731356407378
  Dispersion energy:                                           -1.88766709046714

  Total energy:                                             -6908.91986222716969

  outer SCF iter =   50 RMS gradient =   0.12E-04 energy =      -6908.9198622272

  ----------------------------------- OT ---------------------------------------
  Minimizer      : DIIS                : direct inversion
                                         in the iterative subspace
                                         using   7 DIIS vectors
                                         safer DIIS on
  Preconditioner : FULL_SINGLE_INVERSE : inversion of 
                                         H + eS - 2*(Sc)(c^T*H*c+const)(Sc)^T
  Precond_solver : DEFAULT
  stepsize       :    0.08000000                  energy_gap     :    0.08000000
  eps_taylor     :   0.10000E-15                  max_taylor     :             4
  ----------------------------------- OT ---------------------------------------

  Step     Update method      Time    Convergence         Total energy    Change
  ------------------------------------------------------------------------------
     1 OT DIIS     0.80E-01   33.9     0.00000266     -6908.9199955733 -1.33E-04
     2 OT DIIS     0.80E-01   12.8     0.00000802     -6908.9199943083  1.27E-06
     3 OT DIIS     0.80E-01   12.8     0.00000256     -6908.9199971142 -2.81E-06
     4 OT DIIS     0.80E-01   12.8     0.00000170     -6908.9199977184 -6.04E-07
     5 OT DIIS     0.80E-01   12.9     0.00000161     -6908.9199981591 -4.41E-07
     6 OT DIIS     0.80E-01   12.8     0.00000156     -6908.9199988120 -6.53E-07
     7 OT DIIS     0.80E-01   12.8     0.00000155     -6908.9199994053 -5.93E-07
     8 OT DIIS     0.80E-01   13.0     0.00000155     -6908.9200001968 -7.91E-07
     9 OT DIIS     0.80E-01   12.9     0.00000155     -6908.9200008634 -6.67E-07
    10 OT DIIS     0.80E-01   12.9     0.00000155     -6908.9200018151 -9.52E-07
    11 OT SD       0.80E-01   13.2     0.00000155     -6908.9200020765 -2.61E-07
    12 OT SD       0.80E-01   13.2     0.00000156     -6908.9200032327 -1.16E-06
    13 OT SD       0.80E-01   13.0     0.00000191     -6908.9200043439 -1.11E-06
    14 OT SD       0.80E-01   13.1     0.00000610     -6908.9200042050  1.39E-07
    15 OT DIIS     0.80E-01   13.5     0.00003118     -6908.9199693443  3.49E-05
    16 OT DIIS     0.80E-01   12.9     0.00000157     -6908.9199892218 -1.99E-05
    17 OT DIIS     0.80E-01   12.9     0.00000159     -6908.9199911131 -1.89E-06
    18 OT DIIS     0.80E-01   12.9     0.00000165     -6908.9199936012 -2.49E-06
    19 OT DIIS     0.80E-01   13.2     0.00000156     -6908.9200038153 -1.02E-05
    20 OT SD       0.80E-01   13.1     0.00000155     -6908.9200074203 -3.61E-06
    21 OT SD       0.80E-01   13.1     0.00000156     -6908.9200085854 -1.17E-06
    22 OT SD       0.80E-01   13.4     0.00000167     -6908.9200097374 -1.15E-06
    23 OT SD       0.80E-01   13.3     0.00000292     -6908.9200106394 -9.02E-07
    24 OT SD       0.80E-01   13.2     0.00001071     -6908.9200070274  3.61E-06
    25 OT DIIS     0.80E-01   13.3     0.00004758     -6908.9199145963  9.24E-05
    26 OT DIIS     0.80E-01   13.2     0.00000369     -6908.9199419248 -2.73E-05
    27 OT DIIS     0.80E-01   13.1     0.00000385     -6908.9199499787 -8.05E-06
    28 OT DIIS     0.80E-01   13.0     0.00000247     -6908.9199689551 -1.90E-05
    29 OT DIIS     0.80E-01   13.3     0.00000269     -6908.9200169028 -4.79E-05
    30 OT DIIS     0.80E-01   13.5     0.00000387     -6908.9200391464 -2.22E-05
    31 OT SD       0.80E-01   14.0     0.00000686     -6908.9200728462 -3.37E-05
    32 OT DIIS     0.80E-01   13.4     0.00000919     -6908.9200732570 -4.11E-07
    33 OT SD       0.80E-01   13.3     0.00000642     -6908.9200689252  4.33E-06
    34 OT SD       0.80E-01   13.0     0.00000860     -6908.9200694262 -5.01E-07
    35 OT SD       0.80E-01   13.1     0.00001665     -6908.9200569876  1.24E-05
    36 OT DIIS     0.80E-01   13.3     0.00005091     -6908.9199475571  1.09E-04
    37 OT SD       0.80E-01   13.2     0.00000471     -6908.9199923088 -4.48E-05
    38 OT SD       0.80E-01   13.4     0.00000822     -6908.9199915130  7.96E-07
    39 OT SD       0.80E-01   13.9     0.00002818     -6908.9199591413  3.24E-05
    40 OT DIIS     0.80E-01   13.6     0.00012697     -6908.9193102982  6.49E-04
    41 OT DIIS     0.80E-01   13.3     0.00001873     -6908.9197994317 -4.89E-04
    42 OT DIIS     0.80E-01   13.9     0.00000497     -6908.9200427205 -2.43E-04
    43 OT DIIS     0.80E-01   13.0     0.00000539     -6908.9200493491 -6.63E-06
    44 OT DIIS     0.80E-01   13.1     0.00000560     -6908.9200546875 -5.34E-06
    45 OT DIIS     0.80E-01   13.4     0.00000623     -6908.9200827938 -2.81E-05
    46 OT SD       0.80E-01   13.3     0.00001283     -6908.9201297339 -4.69E-05
    47 OT DIIS     0.80E-01   13.2     0.00001685     -6908.9201293147  4.19E-07
    48 OT SD       0.80E-01   13.3     0.00001105     -6908.9201166800  1.26E-05
    49 OT SD       0.80E-01   13.2     0.00001464     -6908.9201162594  4.21E-07
    50 OT SD       0.80E-01   13.2     0.00002529     -6908.9200835036  3.28E-05
    51 OT DIIS     0.80E-01   13.1     0.00004906     -6908.9199518743  1.32E-04
    52 OT SD       0.80E-01   13.4     0.00000742     -6908.9200134754 -6.16E-05
    53 OT SD       0.80E-01   13.3     0.00001380     -6908.9200093913  4.08E-06
    54 OT DIIS     0.80E-01   13.8     0.00005414     -6908.9198955139  1.14E-04
    55 OT DIIS     0.80E-01   13.9     0.00001639     -6908.9198688480  2.67E-05
    56 OT DIIS     0.80E-01   13.3     0.00000754     -6908.9200843911 -2.16E-04
    57 OT SD       0.80E-01   13.3     0.00000926     -6908.9201107994 -2.64E-05
    58 OT SD       0.80E-01   13.5     0.00001222     -6908.9201112308 -4.31E-07
    59 OT DIIS     0.80E-01   13.1     0.00002217     -6908.9200877442  2.35E-05
    60 OT DIIS     0.80E-01   13.7     0.00000556     -6908.9200743210  1.34E-05
    61 OT SD       0.80E-01   14.0     0.00002894     -6908.9202101644 -1.36E-04
    62 OT SD       0.80E-01   13.7     0.00003859     -6908.9201972567  1.29E-05
    63 OT DIIS     0.80E-01   13.4     0.00007073     -6908.9199375068  2.60E-04
    64 OT SD       0.80E-01   13.3     0.00000723     -6908.9200523008 -1.15E-04
    65 OT SD       0.80E-01   13.3     0.00001451     -6908.9200471360  5.16E-06
    66 OT DIIS     0.80E-01   13.1     0.00005602     -6908.9199205617  1.27E-04
    67 OT DIIS     0.80E-01   13.0     0.00001040     -6908.9199809251 -6.04E-05
    68 OT DIIS     0.80E-01   13.2     0.00000934     -6908.9199949948 -1.41E-05
    69 OT DIIS     0.80E-01   13.0     0.00000774     -6908.9200628279 -6.78E-05
    70 OT DIIS     0.80E-01   12.9     0.00000730     -6908.9201434557 -8.06E-05
    71 OT DIIS     0.80E-01   13.4     0.00000851     -6908.9201591109 -1.57E-05
    72 OT DIIS     0.80E-01   13.7     0.00001303     -6908.9202134019 -5.43E-05
    73 OT DIIS     0.80E-01   13.7     0.00002299     -6908.9202634022 -5.00E-05
    74 OT SD       0.80E-01   13.6     0.00002631     -6908.9202702011 -6.80E-06
    75 OT SD       0.80E-01   13.8     0.00003491     -6908.9202634812  6.72E-06
    76 OT DIIS     0.80E-01   13.1     0.00006922     -6908.9200332366  2.30E-04
    77 OT DIIS     0.80E-01   13.1     0.00001037     -6908.9200284612  4.78E-06
    78 OT DIIS     0.80E-01   13.1     0.00000904     -6908.9200516166 -2.32E-05
    79 OT SD       0.80E-01   13.4     0.00000977     -6908.9200908383 -3.92E-05
    80 OT DIIS     0.80E-01   13.2     0.00004463     -6908.9200133357  7.75E-05
    81 OT DIIS     0.80E-01   13.5     0.00000407     -6908.9200734531 -6.01E-05
    82 OT DIIS     0.80E-01   13.5     0.00000386     -6908.9200830350 -9.58E-06
    83 OT DIIS     0.80E-01   13.4     0.00000258     -6908.9200955877 -1.26E-05
    84 OT DIIS     0.80E-01   13.4     0.00000210     -6908.9200982553 -2.67E-06
    85 OT DIIS     0.80E-01   13.1     0.00000222     -6908.9200988541 -5.99E-07
    86 OT SD       0.80E-01   13.5     0.00000209     -6908.9200988540  9.28E-11
    87 OT SD       0.80E-01   13.7     0.00000259     -6908.9201008180 -1.96E-06
    88 OT DIIS     0.80E-01   13.2     0.00000776     -6908.9201007125  1.05E-07
    89 OT DIIS     0.80E-01   13.6     0.00000216     -6908.9200995742  1.14E-06
    90 OT SD       0.80E-01   13.3     0.00000217     -6908.9200999102 -3.36E-07
    91 OT SD       0.80E-01   13.3     0.00000401     -6908.9201015491 -1.64E-06
    92 OT DIIS     0.80E-01   13.1     0.00001835     -6908.9200914205  1.01E-05
    93 OT DIIS     0.80E-01   13.2     0.00000223     -6908.9200938314 -2.41E-06
    94 OT DIIS     0.80E-01   13.2     0.00000227     -6908.9200965021 -2.67E-06
    95 OT SD       0.80E-01   13.2     0.00000223     -6908.9200976893 -1.19E-06
    96 OT SD       0.80E-01   13.2     0.00000463     -6908.9200990754 -1.39E-06
    97 OT DIIS     0.80E-01   13.1     0.00002164     -6908.9200838806  1.52E-05
    98 OT DIIS     0.80E-01   13.1     0.00000340     -6908.9200737849  1.01E-05
    99 OT SD       0.80E-01   13.3     0.00000220     -6908.9200967171 -2.29E-05
   100 OT SD       0.80E-01   13.1     0.00000402     -6908.9200982528 -1.54E-06

  Leaving inner SCF loop after reaching   100 steps.


  Electronic density on regular grids:      -2432.0000000002       -0.0000000002
  Core density on regular grids:             2431.9999999988       -0.0000000012
  Total charge density on r-space grids:       -0.0000000013
  Total charge density g-space grids:          -0.0000000013

  Overlap energy of the core charge distribution:               0.02661029870191
  Self energy of the core charge distribution:             -16017.19408509233290
  Core Hamiltonian energy:                                   4298.10064624664210
  Hartree energy:                                            6139.18581424600052
  Exchange-correlation energy:                              -1327.15141686138645
  Dispersion energy:                                           -1.88766709046714

  Total energy:                                             -6908.92009825284094

  outer SCF iter =   51 RMS gradient =   0.40E-05 energy =      -6908.9200982528
  outer SCF loop FAILED to converge after   51 iterations or 5100 steps


 *******************************************************************************
 *   ___                                                                       *
 *  /   \                                                                      *
 * [ABORT]                                                                     *
 *  \___/     SCF run NOT converged. To continue the calculation regardless,   *
 *    |             please set the keyword IGNORE_CONVERGENCE_FAILURE.         *
 *  O/|                                                                        *
 * /| |                                                                        *
 * / \                                                            qs_scf.F:611 *
 *******************************************************************************


 ===== Routine Calling Stack ===== 

            8 scf_env_do_scf
            7 qs_energies
            6 qs_forces
            5 cp_eval_at
            4 cp_opt_gopt_step
            3 geoopt_lbfgs
            2 cp_geo_opt
            1 CP2K
