#     Step Nr.          Time[fs]        Kin.[a.u.]          Temp[K]            Pot.[a.u.]        Cons Qty[a.u.]        UsedTime[s]
         0            0.000000         1.784079260       973.000000000     -6016.380228288     -6014.596149029         0.000000000
         1            0.250000       406.242003083    221556.002568291     -6488.005007175     -6028.440647219      4911.671900164
         2            0.500000       444.884378522    242630.756451309     -6611.223856250     -6007.287903658      2668.908581560
         3            0.750000       405.565743628    221187.184621361     -6666.473247328     -5996.579540889       771.294422458
         4            1.000000       349.542851552    190633.455744286     -6693.808055679     -5986.955011158       888.650881187
         5            1.250000       292.637645954    159598.531285543     -6707.466254197     -5978.113213720      2550.546280918
         6            1.500000       242.238263879    132111.748678531     -6713.827516682     -5969.242744080      2772.233368543
         7            1.750000       204.277098029    111408.512443283     -6723.991675096     -5961.835185016      2235.516298856
