     387
 i =        0, time =        0.000, E =     -6016.3802282881
  O         0.4133434997        2.6175716998        3.3490898231
  O         0.4788875136       36.7890971836        5.1497315470
  O         0.4458744621       27.4896763150        7.0073952741
  O         0.5177236545       18.1754922960        8.6378427426
  O         0.4693868734       15.9828124692        4.1293135555
  O         0.5201512022        6.9143930207        5.9507640591
  O         0.3967767560       40.6521791034        7.7065979307
  O         0.4361073945       31.4421937224        9.4896780438
  O         0.4398323042       30.3567686254        2.8551999965
  O         0.4595776330       21.1537502843        4.6255615233
  O         0.4556765345       11.9407122072        6.3770046832
  O         0.4499284632        2.6139519892        8.1343745192
  O         3.9586574840       18.8088190400        3.0480661760
  O         3.9657293819        9.6944408470        4.8004697865
  O         3.9021089702        0.2082325850        6.3516981872
  O         3.8555512899       34.3343218225        8.2688082127
  O         3.9393401551        5.3249857637        2.1271674566
  O         3.8570211167       39.4300849408        3.9147760387
  O         3.9354177888       30.1005140128        5.6980686634
  O         3.8978034608       20.9633128087        7.4942137893
  O         3.9024700153       34.4675334705        3.4695695335
  O         3.9140658229       25.1153517384        5.3780308396
  O         3.8873095862       15.7591580989        7.1636405791
  O         3.8574182272        6.6795473230        8.7811569715
  O         6.3625702906       18.7925514245        3.0996270073
  O         6.4008155066        9.6913005107        4.6988932198
  O         6.4199400552        0.2073206592        6.3413562388
  O         6.4627637085       34.3343570156        8.2686582471
  O         6.3797688766        5.3258749894        2.1280395798
  O         6.4614102422       39.4301695348        3.9156844730
  O         6.4137368144       30.1538763306        5.7211848888
  O         6.4612019470       21.0394222842        7.5330892521
  O         6.4162756077       34.4671237358        3.4697100286
  O         6.4111610919       25.1452090760        5.3322373226
  O         6.4128590901       15.8107860980        7.1221092090
  O         6.4206452684        6.6835136889        8.7797673891
  O         3.0252675518        2.6184011461        3.3483231383
  O         2.9606068412       36.7892283386        5.1494883516
  O         3.0360853545       27.4919678291        7.0771098733
  O         2.9290554430       18.1851728772        8.6492509618
  O         3.0128420908       15.9600407408        4.1090966273
  O         2.9410228788        6.8816145437        5.9339086463
  O         3.0378909609       40.6506813789        7.7067583166
  O         3.0029797743       31.4424856976        9.4904173413
  O         3.0178660973       30.3701738771        2.8407854643
  O         2.9509861451       21.1099605098        4.6528060627
  O         2.9564896383       11.9229767187        6.3886877750
  O         2.9890131792        2.6150366454        8.1336891185
  O         1.7203494714        0.5012400331        3.6884790973
  O         1.7203145490       34.5745511299        5.4797393338
  O         1.7183221787       25.2794709531        7.3066296100
  O         1.7219142762       15.9838550385        9.0762675815
  O         1.7197950542        2.3883785911        5.4117439518
  O         1.7201675434       36.3857313266        7.3310637079
  O         1.7086034737       27.1827503391        9.1310981809
  O         1.7187388413       17.7404293765       10.8826987528
  P         1.7198712435        2.0604081228        3.8859759693
  P         1.7198525858       36.0654043271        5.7769102526
  P         1.7231696356       26.8173436610        7.5929495369
  P         1.7203897307       17.5847271621        9.4062291595
 Ca         1.7199596086       38.5814924682        4.1183107290
 Ca         1.7066775492       29.7020332290        5.7803940547
 Ca         1.6968453642       20.0672999205        7.6491268224
 Ca         1.8026885259       10.8176933152        9.2491972249
  O         1.7261422231       16.9175046318        2.1340136606
  O         1.7175453002        7.6466717826        3.8189680383
  O         1.7204766105       41.5614098165        5.6783123367
  O         1.7207788187       32.3437340785        7.4679577104
  O         1.7207154006       14.3519622797        2.7919772093
  O         1.7066221074        5.1791615456        4.5218614330
  O         1.7202196105       39.1209847219        6.3145922417
  O         1.7207119890       29.9006620439        8.0177166901
  P         1.7271044625       15.8977981236        3.2049080326
  P         1.7228223728        6.6562943783        4.9606716018
  P         1.7179645986       40.5912673934        6.8948507670
  P         1.7201811481       31.3393026012        8.6837013440
 Ca         1.7195989229       34.4867838087        2.8985288981
 Ca         1.7557858328       25.3289377663        4.6961079596
 Ca         1.6972906131       15.9897954170        6.3671399295
 Ca         1.7405765151        6.6895892561        8.1940365758
  O         1.7223331348       31.8091452620        4.5133439377
  O         1.7237481249       22.5495644274        6.3732765221
  O         1.7242726682       13.2016452560        8.2051279144
  O         1.7189960963        4.0267519224        9.9351994725
  O         1.7145686938       32.3748217868        2.0238547811
  O         1.7331454955       23.2169592082        3.9039192547
  O         1.7318632330       13.9059048056        5.6584431008
  O         1.7179485317        4.4901988082        7.3632256436
  P         1.7333864385       31.2029184150        3.0046486022
  P         1.7195359853       21.9846367493        4.8595339872
  P         1.7069995758       12.7352901519        6.6738824054
  P         1.7204623043        3.4860817086        8.5551892749
 Ca         1.7288506765       19.2434135588        3.0358802926
 Ca         1.7248595768        9.5863141244        5.0241044128
 Ca         1.7278240698        1.0277289273        7.0598151681
 Ca         1.7198221132       34.2269796571        8.8097885739
  O         5.1666298767       20.9760969104        2.6981365026
  O         5.1535018857       11.8507926950        4.3256533806
  O         5.1580003345        2.4361472829        6.1247219293
  O         5.1587029859       36.5095314250        7.9331403290
  O         5.1727089512       19.1822253054        0.8202786744
  O         5.1391647583       10.0837641263        2.5353555194
  O         5.1564095944        0.6254850219        4.2873760289
  O         5.1586979102       34.6148372177        6.1930059253
  P         5.1515709250       19.5129369972        2.2855288986
  P         5.1534156328       10.2461302918        4.0291364345
  P         5.1585571516        0.9757077420        5.7969738745
  P         5.1590644013       34.9310938362        7.7253960799
 Ca         5.1738488961       25.9419319139        2.4136418150
 Ca         5.1110066804       16.9625210640        3.6910278644
 Ca         5.1464062296        7.4987105649        5.7222308433
 Ca         5.1334723827       41.6439187196        7.4754736553
  O         5.1570058699        4.6448066898        4.2503888217
  O         5.1585208248       38.5802984990        5.9801371088
  O         5.1603009543       29.2873539759        7.7582419183
  O         5.1552503235       20.0734495224        9.5096263682
  O         5.1576138123        7.1095898030        3.5707859843
  O         5.1584215329       41.0291914759        5.3049918409
  O         5.1451092064       31.7968550853        7.1106606421
  O         5.1431405826       22.6299893604        8.8191073958
  P         5.1590059956        5.7172965223        2.9716603097
  P         5.1590889623       39.5714672740        4.7544964838
  P         5.1623017081       30.3676540903        6.5961701306
  P         5.1617210456       21.0839013011        8.4174528787
 Ca         5.1716747579       30.3131254918        3.3799422499
 Ca         5.1768936207       20.9561116553        4.9313106021
 Ca         5.1012419683       11.7540829630        6.6993728438
 Ca         5.1557330055        2.6042889463        8.7756568764
  O         5.1593015515       32.9881788398        1.7044389576
  O         5.1590645952       23.9817879104        3.4510901953
  O         5.1609592532       14.4841082714        5.2833691003
  O         5.1529918686        5.2376932710        7.1133656402
  O         5.1594605119       32.5426183686        4.2564805546
  O         5.1706460234       23.1014198442        5.8972235746
  O         5.1715668419       13.8091120558        7.8407363503
  O         5.1611377257        4.6383553107        9.5821663156
  P         5.1588667781       33.5608102063        3.0566438802
  P         5.1552699877       24.2905031898        4.9293052137
  P         5.1549339707       15.0196024072        6.7494921164
  P         5.1519269491        5.8318811455        8.5993981123
 Ca         5.1584827135        2.8960226228        2.8038677086
 Ca         5.1593143804       36.1219100736        4.5433815882
 Ca         5.1771664514       27.0780064334        6.1994079378
 Ca         5.1619535083       18.0079005916        8.3291243612
 Ca         0.0340766188       42.3308852923        4.3140721481
 Ca        -0.0268828552       32.8447362616        5.8255897457
 Ca        -0.0315688059       23.4557618288        7.4355884951
 Ca         0.0628308653       14.4885780706        9.2365448653
 Ca         3.4448794852       13.4516252433        4.0921200695
 Ca         3.4174066205        4.2439136654        5.7869282999
 Ca         3.4612459675       38.0181190928        7.4157588686
 Ca         3.3989852598       28.9478740383        9.1039557254
 Ca         6.8670552470       13.4429245737        4.0991777389
 Ca         6.8954747785        4.2367529387        5.7746051163
 Ca         6.8569318387       38.0184439944        7.4153929737
 Ca         6.9198160081       28.9514064868        9.1051050357
 Ca         3.4057641513       42.3309273970        4.3131555470
 Ca         3.4657722858       32.8496561306        5.8247902839
 Ca         3.4714730926       23.4620106573        7.4293151617
 Ca         3.3744983658       14.4928150207        9.2385260917
  O         1.3229390896       27.5147785433        3.6600765052
  O         1.4217797846       19.2037300624        5.6219234468
  O         0.5397658046        9.4541526815        7.9953994648
  O         0.9699840993       -0.0505655146        8.9736540963
  H         0.5318552694       28.3181620976        3.7128040110
  H         0.2812229033       18.0823350968        5.9090940627
  H         0.6666851255        9.0064892202        7.2009707207
  H         0.7344976991        0.0893291723        9.8531902375
  O         3.9078022346       27.2687221171        3.6189737016
  O         4.3400838411       17.9249305089        5.7335048130
  O         4.8238733405        9.5863268570        8.1957816597
  O         4.4331263211        0.0907428470        9.0323635264
  H         4.1508081262       27.8560124984        4.2359405971
  H         4.4890845014       18.8088263331        5.7710850251
  H         3.8580270987        8.8047438812        7.9950084304
  H         4.0835992934       -0.0730410676       10.0258013420
  O        12.6329502200       27.8923041433        4.0495846497
  O        13.1552523158       17.9947726041        5.7366714015
  O        12.3645285137        9.3838204465        6.8425901738
  O        12.9022053692        0.1034207247        9.0641606866
  H        13.5808144158       27.4007128433        4.1732663509
  H        12.7660512510       18.8004003156        5.7726913646
  H        13.4009361828        9.1201287727        8.1175710868
  H        13.0313234487       -0.1670985441        9.9266655140
  O         1.9816777395       27.9147267271        4.9037241205
  O         2.1517131963       18.0490162954        5.7315172125
  O         2.5445491234        9.1321459311        7.7738524148
  O         2.4192664479       -0.0579539733        8.9969781183
  H         2.9961324808       27.6603802796        3.5073831911
  H         2.9673546762       18.6016004363        5.8441147765
  H         3.0781694906        9.4486286001        7.0762352891
  H         2.7099945380        0.0296165411        9.9384321352
  O         7.2924744473        2.6170695118        3.3492478431
  O         7.3578522471       36.7889508291        5.1497350815
  O         7.3240728205       27.4897376924        7.0100049892
  O         7.3935034497       18.1837775425        8.6683478251
  O         7.3036116522       15.9699635652        4.1143069847
  O         7.3671353754        6.8891696944        5.9175694690
  O         7.2773740749       40.6559526847        7.7083697699
  O         7.3150143551       31.4419423832        9.4894778170
  O         7.3200778780       30.3535524829        2.8567484552
  O         7.3834880520       21.0950569865        4.6555009538
  O         7.3399475450       11.9266024799        6.3917365743
  O         7.3264629651        2.6172838059        8.1313526859
  O        10.8251543011       18.7997592083        3.0820137799
  O        10.8519207919        9.6927762757        4.8031541843
  O        10.7809367042        0.2081542228        6.3507664383
  O        10.7345629803       34.3343603314        8.2687891487
  O        10.8175013504        5.3295346541        2.1279720736
  O        10.7362210346       39.4302500556        3.9148301185
  O        10.8141834198       30.1006399572        5.6970713332
  O        10.7413983761       21.0414962881        7.5373626929
  O        10.7812088739       34.4675128614        3.4695389944
  O        10.7903043599       25.1134716005        5.3764203634
  O        10.7880068843       15.8156155662        7.1249486210
  O        10.7624420143        6.6848548419        8.7775401760
  O        13.2449215556       18.8222719943        3.0226505427
  O        13.2782958854        9.6900592063        4.6983363819
  O        13.2977957741        0.2071512930        6.3442093864
  O        13.3416820292       34.3343840995        8.2686419498
  O        13.2591954830        5.3302158482        2.1284306930
  O        13.3404690700       39.4303713050        3.9158054200
  O        13.2918581720       30.1550221043        5.7221057380
  O        13.2993254767       20.9727852727        7.5014841007
  O        13.2950620977       34.4672268277        3.4696614469
  O        13.2882435473       25.1490570493        5.3280609523
  O        13.3054669118       15.7664116745        7.1632252788
  O        13.3380131113        6.6980539991        8.7761718998
  O         9.9049641412        2.6182097466        3.3489783914
  O         9.8396596920       36.7891704780        5.1494924862
  O         9.9154215762       27.4931375693        7.0771919970
  O         9.7973018076       18.1709034008        8.6450687963
  O         9.8538892756       16.0105737622        4.1591796561
  O         9.8171585808        6.9172461290        5.9300414280
  O         9.9206002638       40.6453163251        7.7035212959
  O         9.8818720481       31.4428582225        9.4905118726
  O         9.8965514227       30.3688351540        2.8409061226
  O         9.8350267170       21.1291328746        4.6299911332
  O         9.8581131236       11.9597214442        6.3581340776
  O         9.8677801900        2.6059794470        8.1371302215
  O         8.5998821635        0.5014651170        3.6881702322
  O         8.5993783323       34.5744244080        5.4796655127
  O         8.5973196238       25.2791784928        7.3061506593
  O         8.5993873035       15.9819814776        9.0727232308
  O         8.5995417897        2.3876755632        5.4118872530
  O         8.5990687603       36.3856782495        7.3310658206
  O         8.5872231701       27.1827941398        9.1308592651
  O         8.6043228637       17.7374328744       10.8929822160
  P         8.5990286141        2.0594734216        3.8858251315
  P         8.5988007795       36.0655864936        5.7770668118
  P         8.6013421568       26.8167091681        7.5938938651
  P         8.6000137691       17.5825994045        9.4179861000
 Ca         8.5987314537       38.5815141911        4.1181250783
 Ca         8.5868833285       29.6996303808        5.7805296255
 Ca         8.6242941938       20.0669418396        7.6630371705
 Ca         8.5610716559       10.8622211153        9.2739061860
  O         8.5954541140       16.9199127355        2.1355248230
  O         8.6052647649        7.6525490910        3.8090105037
  O         8.5995946354       41.5614457514        5.6780471847
  O         8.5995133273       32.3436817728        7.4678404667
  O         8.6046932382       14.3627366986        2.7962185556
  O         8.6124048168        5.1785146124        4.5202171156
  O         8.5976724052       39.1208242043        6.3144971470
  O         8.6001037372       29.9004835501        8.0172506439
  P         8.5877865646       15.9040113296        3.2086779264
  P         8.5990188587        6.6606467895        4.9627149506
  P         8.5980379370       40.5913517895        6.8952217840
  P         8.5991224340       31.3396456159        8.6839426855
 Ca         8.5985722806       34.4880876537        2.8988620257
 Ca         8.6304019710       25.3360066146        4.6977060091
 Ca         8.6361649793       16.0041013641        6.3654058010
 Ca         8.5916375432        6.6165670916        8.3396164186
  O         8.6014784437       31.8083634626        4.5126420576
  O         8.5951781358       22.5463657864        6.3648659243
  O         8.5971142729       13.2063240187        8.2053056040
  O         8.6004688257        4.0057955035        9.9414376257
  O         8.5930344877       32.3738193159        2.0235019709
  O         8.5824568899       23.2142703040        3.9018714472
  O         8.5874409796       13.9119030237        5.6605192135
  O         8.6020475586        4.4878947018        7.3697364110
  P         8.6131525592       31.2043133988        3.0057724285
  P         8.6002892432       21.9932834719        4.8632351476
  P         8.6008542079       12.7270117767        6.6677070494
  P         8.5978084922        3.4784278394        8.5558451607
 Ca         8.5897513756       19.2526069983        3.0017115292
 Ca         8.5972230538        9.6095417468        4.9857549954
 Ca         8.6122967687        1.0240994086        7.0603401443
 Ca         8.5988404817       34.2268717835        8.8098406226
  O        12.0282962959       20.9809894887        2.6976653233
  O        12.0315834832       11.8407001747        4.3282708822
  O        12.0378032726        2.4358244770        6.1249096835
  O        12.0376594171       36.5095537518        7.9331147695
  O        12.0232515054       19.1832426660        0.8162093414
  O        12.0184690541       10.0844830736        2.5308572970
  O        12.0359786373        0.6256894114        4.2875908357
  O        12.0376165715       34.6148152441        6.1930082256
  P        12.0506426900       19.5278931946        2.2768672346
  P        12.0341329287       10.2410919252        4.0251037118
  P        12.0379330324        0.9756874419        5.7966367449
  P        12.0380674468       34.9311355292        7.7254314711
 Ca        12.0564675499       25.9417602716        2.4154579372
 Ca        12.1062089983       16.9888929381        3.5650241300
 Ca        12.0642306460        7.4855480104        5.7160718012
 Ca        12.0143804896       41.6424719567        7.4723086930
  O        12.0397890512        4.6453416860        4.2505631406
  O        12.0376920632       38.5802861583        5.9800043571
  O        12.0392267148       29.2872266680        7.7578147209
  O        12.0409187333       20.0742926681        9.5105100690
  O        12.0387085770        7.1095187214        3.5686008632
  O        12.0376945874       41.0293024944        5.3048597442
  O        12.0236556458       31.7971250852        7.1106210523
  O        12.0526172512       22.6343631080        8.8211297845
  P        12.0379526613        5.7168423854        2.9725592771
  P        12.0380445023       39.5711498679        4.7543686804
  P        12.0426390723       30.3684376827        6.5964207126
  P        12.0335701827       21.0865557341        8.4186989074
 Ca        12.0538458906       30.3156105472        3.3796329381
 Ca        12.0181558660       20.9737959023        4.9396979681
 Ca        12.0090173882       11.6461024509        6.7080633477
 Ca        12.0364178478        2.6075177353        8.7751229404
  O        12.0380704549       32.9881335623        1.7044642557
  O        12.0358184879       23.9818488567        3.4507956391
  O        12.0341844005       14.4595504333        5.3021423038
  O        12.0495571792        5.2397798127        7.1134808568
  O        12.0380561238       32.5429815726        4.2567759392
  O        12.0501602999       23.1066043021        5.9011119171
  O        12.0250302377       13.7983365833        7.8419216985
  O        12.0496969320        4.6448980636        9.5816308981
  P        12.0383147136       33.5610616485        3.0565770063
  P        12.0364065553       24.2912948572        4.9284105185
  P        12.0436689166       15.0110470190        6.7538714149
  P        12.0531053673        5.8416328303        8.5973856541
 Ca        12.0389084094        2.8977901064        2.8028448414
 Ca        12.0383956738       36.1218366382        4.5433882413
 Ca        12.0553090571       27.0790418515        6.2006934579
 Ca        12.0384927205       18.0157699101        8.3220681873
 Ca         6.9125153468       42.3309677703        4.3145977627
 Ca         6.8517953382       32.8448484611        5.8257886330
 Ca         6.8445556111       23.4536733669        7.4382122763
 Ca         6.9439249549       14.4905844636        9.2536988906
 Ca        10.3182804772       13.4077937719        4.1085430842
 Ca        10.3019163921        4.2321813956        5.7738440032
 Ca        10.3402075402       38.0185710688        7.4156270309
 Ca        10.2785142325       28.9463821735        9.1042415949
 Ca        13.7637131509       13.4140374223        4.1038743887
 Ca        13.7807955174        4.2384190568        5.7869659490
 Ca        13.7359196016       38.0182287825        7.4154307415
 Ca        13.7983036475       28.9506586345        9.1057327234
 Ca        10.2843088089       42.3305836368        4.3130710564
 Ca        10.3450446817       32.8497997641        5.8251338451
 Ca        10.3554669861       23.4557579904        7.4363857958
 Ca        10.2560529798       14.4867980019        9.2408366065
  O         8.1877172669       27.5500114862        3.6603487398
  O         7.7724200939       17.9758734982        5.8417735969
  O         7.5958262565        9.1060032004        8.0035794805
  O         7.8759892760        0.0752304254        8.9668403220
  H         7.4976175846       28.3201931208        3.6903608832
  H         7.5546194376       18.9475734942        5.8071262169
  H         7.1087910816        9.3047894526        7.0703888671
  H         7.5916921557        0.0507849076        9.8581141786
  O        10.8136170367       27.2698043729        3.6495590564
  O        11.2612006279       18.8539439341        6.3187196704
  O        11.7634217607        9.6893462828        8.1201243134
  O        11.3102806245        0.1150833961        9.0367342268
  H        11.0494766250       27.8898377454        4.2576312917
  H        11.0457963278       18.4628452563        5.3546719642
  H        10.8286215595        9.1035868621        8.0397011112
  H        10.9645162253       -0.0976575380       10.0239572033
  O         5.7127219130       27.8584947666        4.0620115512
  O         5.7949529165       18.8477738789        6.2956959063
  O         5.5074895964        9.5285033044        6.8760563363
  O         6.0277008223        0.1250346767        9.0493827272
  H         6.6784648092       27.4554922730        4.2137311354
  H         6.1046521975       18.4320481505        5.4327134578
  H         6.7748434618        8.7500157947        8.1635876178
  H         6.1659243419       -0.1721089876        9.9356109060
  O         8.8538610301       27.8997036094        4.9179162836
  O         8.9693204339       18.8838995237        5.6263357235
  O         9.5452147146        9.6400251590        7.8187281771
  O         9.2788274479       -0.2215259404        8.9995027070
  H         9.8870725497       27.6687639292        3.5238477566
  H         9.9542994571       18.4657769720        6.0957787164
  H         9.6323964557        9.0621659393        7.1773310568
  H         9.6025994211        0.0834733855        9.9139311515
  O         7.1459295938       21.6740756008       17.8258682992
  C         7.2869947148       22.8160338353       17.8626894546
  O         7.4488955881       24.0341512882       17.9065052405
     387
 i =        1, time =        0.250, E =     -6488.0050071752
  O         0.4162416600        2.6158813467        3.3486144722
  O         0.4786976738       36.7890489324        5.1474483535
  O         0.4442217973       27.4885766802        7.0057422865
  O         0.5201259382       18.1740737654        8.6411804590
  O         0.4723997561       15.9818456650        4.1298875171
  O         0.5207095283        6.9134852835        5.9535338491
  O         0.3967543473       40.6508659756        7.7081502685
  O         0.4335180202       31.4401804046        9.4884048072
  O         0.4377770737       30.3585328981        2.8534941061
  O         0.4593300153       21.1574932444        4.6244296967
  O         0.4548317986       11.9437781862        6.3760753120
  O         0.4511556065        2.6133769902        8.1369208351
  O         3.9590595433       18.8094758372        3.0453364781
  O         3.9624559286        9.6939844200        4.8024448764
  O         3.9011428882        0.2111409430        6.3518367088
  O         3.8591847012       34.3363922510        8.2708884411
  O         3.9393414531        5.3224207148        2.1292159897
  O         3.8579758807       39.4310183524        3.9149953209
  O         3.9370017639       30.0995624231        5.6973514828
  O         3.8967420107       20.9650426551        7.4951562940
  O         3.9035751832       34.4683833390        3.4719418459
  O         3.9119802552       25.1148225046        5.3769740694
  O         3.8908044437       15.7598742494        7.1628881562
  O         3.8518808715        6.6798799797        8.7830374308
  O         6.3604782637       18.7939569797        3.0978528328
  O         6.4056537417        9.6930756781        4.7015691962
  O         6.4219179257        0.2042611705        6.3423298758
  O         6.4633966777       34.3353976808        8.2701378890
  O         6.3768333736        5.3254950950        2.1291968359
  O         6.4576410748       39.4304847196        3.9145036886
  O         6.4092560214       30.1560237350        5.7238159659
  O         6.4600507949       21.0406120194        7.5349932937
  O         6.4201682539       34.4702123706        3.4705302519
  O         6.4120417758       25.1429585277        5.3306234596
  O         6.4155093713       15.8123055280        7.1214015756
  O         6.4192131870        6.6822567479        8.7819358435
  O         3.0220535920        2.6189232275        3.3461349089
  O         2.9609141912       36.7931249266        5.1500604286
  O         3.0365622893       27.4914615958        7.0775402800
  O         2.9277776093       18.1862708884        8.6515070082
  O         3.0088510102       15.9598802047        4.1057612786
  O         2.9357788803        6.8798202753        5.9322208411
  O         3.0371044863       40.6498425676        7.7060205870
  O         3.0035345697       31.4415158128        9.4903615697
  O         3.0150720308       30.3672661010        2.8406208929
  O         2.9506174641       21.1090904410        4.6510448925
  O         2.9578019026       11.9240651261        6.3853300770
  O         2.9900049502        2.6167696650        8.1351810502
  O         1.7174944087        0.5090046138        3.6848884954
  O         1.7212377135       34.5735410136        5.4796903862
  O         1.7190687371       25.2816409096        7.3074238097
  O         1.7240785658       15.9813451591        9.0796863320
  O         1.7201299271        2.3940980167        5.4175267013
  O         1.7205261083       36.3895378708        7.3384608308
  O         1.7056484671       27.1875752840        9.1355381287
  O         1.7173345204       17.7388039618       10.8823228732
  P         1.7209260062        2.0603542789        3.8779193676
  P         1.7200642054       36.0668828925        5.7740184287
  P         1.7220935178       26.8163960365        7.5929439462
  P         1.7209045766       17.5841870436        9.4062634509
 Ca         1.7186102041       38.5815071352        4.1194989874
 Ca         1.7059982482       29.6993242362        5.7840127128
 Ca         1.6967341565       20.0676810943        7.6487327220
 Ca         1.8116280590       10.8094736771        9.2930996185
  O         1.7245504032       16.9192399995        2.1315428392
  O         1.7173937313        7.6430586648        3.8260210066
  O         1.6921015086       41.5736830404        5.6770099831
  O         1.7215022280       32.3446442588        7.4703667157
  O         1.7217531710       14.3523565042        2.7920238559
  O         1.7070431242        5.1829169507        4.5155118613
  O         1.7595689043       38.7850298717        6.2316966688
  O         1.6898004792       29.7069901955        7.7440830417