 DBCSR| CPU Multiplication driver                                           XSMM (U)
 DBCSR| Multrec recursion limit                                              512 (U)
 DBCSR| Multiplication stack size                                          50000 (U)
 DBCSR| Maximum elements for images                                    UNLIMITED (U)
 DBCSR| Multiplicative factor virtual images                                   1 (U)
 DBCSR| Use multiplication densification                                       F (D)
 DBCSR| Multiplication size stacks                                             3 (U)
 DBCSR| Use memory pool for CPU allocation                                     T (U)
 DBCSR| Number of 3D layers                                               SINGLE (U)
 DBCSR| Use MPI memory allocation                                              F (U)
 DBCSR| Use RMA algorithm                                                      F (U)
 DBCSR| Use Communication thread                                               T (U)
 DBCSR| Communication thread load                                             30 (D)
 DBCSR| MPI: My process id                                                     0
 DBCSR| MPI: Number of processes                                               1
 DBCSR| OMP: Current number of threads                                        16
 DBCSR| OMP: Max number of threads                                            16
 DBCSR| ACC: Number of devices/node                                            1
 DBCSR| ACC: Number of stack-buffers per thread                              128 (U)
 DBCSR| ACC: Avoid driver after busy                                           F (U)
 DBCSR| ACC: Process inhomogeneous stacks                                      T (U)
 DBCSR| ACC: Min. flop for processing                                        500 (U)
 DBCSR| ACC: Use G2G algorithm                                                 F (D)
 DBCSR| ACC: Min. flop for sorting                                           100 (U)
 DBCSR| ACC: Number of binning bins                                        16384 (U)
 DBCSR| ACC: Size of binning bins                                             16 (U)
 DBCSR| ACC: GPU backend is enabled                                            T (D)
 DBCSR| Split modifier for TAS multiplication algorithm                  1.0E+00 (U)


  **** **** ******  **  PROGRAM STARTED AT               2025-11-22 02:54:25.596
 ***** ** ***  *** **   PROGRAM STARTED ON                          1878f6c31579
 **    ****   ******    PROGRAM STARTED BY                             <unknown>
 ***** **    ** ** **   PROGRAM PROCESS ID                                   638
  **** **  *******  **  PROGRAM STARTED IN                             /mnt/cp2k

 CP2K| version string:                 CP2K version 2025.2 (Development Version)
 CP2K| source code revision number:                                  git:e68414f
 CP2K| cp2kflags: omp libint fftw3 libxc libgrpp elpa elpa_nvidia_gpu parallel s
 CP2K|            calapack cosma ace deepmd xsmm dbcsr_acc plumed2 spglib libdft
 CP2K|            td4 mctc-lib tblite sirius libvori libbqb libtorch offload_cud
 CP2K|            da spla_gemm_offloading libvdwxc hdf5 trexio libsmeagol greenx
 CP2K| is freely available from                            https://www.cp2k.org/
 CP2K| Program compiled at                          Sun Nov  2 00:48:36 UTC 2025
 CP2K| Program compiled on                                       buildkitsandbox
 CP2K| Program compiled for                                           local_cuda
 CP2K| Data directory path                                        /opt/cp2k/data
 CP2K| Input file name                                            HAP_410_md.inp

 GLOBAL| Force Environment number                                              1
 GLOBAL| Basis set file name                                        BASIS_MOLOPT
 GLOBAL| Potential file name                                      GTH_POTENTIALS
 GLOBAL| MM Potential file name                                     MM_POTENTIAL
 GLOBAL| Coordinate file name                                      __STD_INPUT__
 GLOBAL| Method name                                                        CP2K
 GLOBAL| Project name                                                 HAP_410_md
 GLOBAL| Run type                                                             MD
 GLOBAL| FFT library                                                       FFTW3
 GLOBAL| Diagonalization library                                            ELPA
 GLOBAL| Cholesky decomposition library                                ScaLAPACK
 GLOBAL| DGEMM library                                                      SPLA
 GLOBAL| Minimum number of eigenvectors for ELPA usage                        16
 GLOBAL| Orthonormality check for eigenvectors enabled                 1.000E-12
 GLOBAL| Matrix multiplication library                                     COSMA
 GLOBAL| All-to-all communication in single precision                          F
 GLOBAL| FFTs using library dependent lengths                                  F
 GLOBAL| Grid backend                                                       AUTO
 GLOBAL| Global print level                                                  LOW
 GLOBAL| MPI I/O enabled                                                       T
 GLOBAL| Total number of message passing processes                             1
 GLOBAL| Number of distributed systems (nodes)                                 1
 GLOBAL| Number of threads for this process                                   16
 GLOBAL| This output is from process                                           0
 GLOBAL| OpenMP stack size per thread (OMP_STACKSIZE)                        16M
 GLOBAL| CPU model name                           Intel(R) Core(TM) Ultra 7 265K
 GLOBAL| CPUID                                                              1002

 MEMORY| system memory details [Kb]
 MEMORY|                        rank 0           min           max       average
 MEMORY| MemTotal             49330336      49330336      49330336      49330336
 MEMORY| MemFree              31805720      31805720      31805720      31805720
 MEMORY| Buffers                219212        219212        219212        219212
 MEMORY| Cached               12501524      12501524      12501524      12501524
 MEMORY| Slab                   481376        481376        481376        481376
 MEMORY| SReclaimable           382392        382392        382392        382392
 MEMORY| MemLikelyFree        44908848      44908848      44908848      44908848


 GENERATE|  Preliminary Number of Bonds generated:                             0
 GENERATE|  Achieved consistency in connectivity generation.

 *******************************************************************************
 *******************************************************************************
 **                                                                           **
 **     #####                         ##              ##                      **
 **    ##   ##            ##          ##              ##                      **
 **   ##     ##                       ##            ######                    **
 **   ##     ##  ##   ##  ##   #####  ##  ##   ####   ##    #####    #####    **
 **   ##     ##  ##   ##  ##  ##      ## ##   ##      ##   ##   ##  ##   ##   **
 **   ##  ## ##  ##   ##  ##  ##      ####     ###    ##   ######   ######    **
 **    ##  ###   ##   ##  ##  ##      ## ##      ##   ##   ##       ##        **
 **     #######   #####   ##   #####  ##  ##  ####    ##    #####   ##        **
 **           ##                                                    ##        **
 **                                                                           **
 **                                                ... make the atoms dance   **
 **                                                                           **
 **            Copyright (C) by CP2K developers group (2000-2025)             **
 **                      J. Chem. Phys. 152, 194103 (2020)                    **
 **                                                                           **
 *******************************************************************************


 TOTAL NUMBERS AND MAXIMUM NUMBERS

  Total number of            - Atomic kinds:                                   5
                             - Atoms:                                        387
                             - Shell sets:                                   387
                             - Shells:                                      2015
                             - Primitive Cartesian functions:               2031
                             - Cartesian basis functions:                   5338
                             - Spherical basis functions:                   4983

  Maximum angular momentum of- Orbital basis functions:                        2
                             - Local part of the GTH pseudopotential:          2
                             - Non-local part of the GTH pseudopotential:      3

 *** WARNING in particle_methods.F:677 :: The distance between the atoms  ***
 *** 64 and 96 is only 0.453 angstrom and thus smaller than the threshold ***
 *** of 0.500 angstrom                                                    ***


 *** WARNING in particle_methods.F:677 :: The distance between the atoms   ***
 *** 67 and 186 is only 0.469 angstrom and thus smaller than the threshold ***
 *** of 0.500 angstrom                                                     ***


 *** WARNING in particle_methods.F:677 :: The distance between the atoms  ***
 *** 71 and 79 is only 0.212 angstrom and thus smaller than the threshold ***
 *** of 0.500 angstrom                                                    ***


 *** WARNING in particle_methods.F:677 :: The distance between the atoms  ***
 *** 72 and 80 is only 0.217 angstrom and thus smaller than the threshold ***
 *** of 0.500 angstrom                                                    ***


 *** WARNING in particle_methods.F:677 :: The distance between the atoms ***
 *** 109 and 141 is only 0.486 angstrom and thus smaller than the        ***
 *** threshold of 0.500 angstrom                                         ***


 *** WARNING in particle_methods.F:677 :: The distance between the atoms ***
 *** 117 and 125 is only 0.232 angstrom and thus smaller than the        ***
 *** threshold of 0.500 angstrom                                         ***


 *** WARNING in particle_methods.F:677 :: The distance between the atoms ***
 *** 256 and 288 is only 0.467 angstrom and thus smaller than the        ***
 *** threshold of 0.500 angstrom                                         ***


 *** WARNING in particle_methods.F:677 :: The distance between the atoms ***
 *** 263 and 271 is only 0.228 angstrom and thus smaller than the        ***
 *** threshold of 0.500 angstrom                                         ***


 *** WARNING in particle_methods.F:677 :: The distance between the atoms ***
 *** 264 and 272 is only 0.327 angstrom and thus smaller than the        ***
 *** threshold of 0.500 angstrom                                         ***


 *** WARNING in particle_methods.F:677 :: The distance between the atoms ***
 *** 301 and 333 is only 0.485 angstrom and thus smaller than the        ***
 *** threshold of 0.500 angstrom                                         ***


 *** WARNING in particle_methods.F:677 :: The distance between the atoms ***
 *** 309 and 317 is only 0.229 angstrom and thus smaller than the        ***
 *** threshold of 0.500 angstrom                                         ***



 SCF PARAMETERS         Density guess:                                    ATOMIC
                        --------------------------------------------------------
                        max_scf:                                             100
                        max_scf_history:                                       0
                        max_diis:                                              4
                        --------------------------------------------------------
                        eps_scf:                                        1.00E-05
                        eps_scf_history:                                0.00E+00
                        eps_diis:                                       0.00E+00
                        eps_eigval:                                     1.00E-05
                        --------------------------------------------------------
                        level_shift [a.u.]:                             0.000000
                        --------------------------------------------------------
                        Outer loop SCF in use 
                        No variables optimised in outer loop
                        eps_scf                                         1.00E-05
                        max_scf                                               50
                        No outer loop optimization
                        step_size                                       5.00E-01

 MD_PAR| Molecular dynamics protocol (MD input parameters)
 MD_PAR| Ensemble type                                                       NVT
 MD_PAR| Number of time steps                                                200
 MD_PAR| Time step [fs]                                                 0.250000
 MD_PAR| Temperature [K]                                              973.000000
 MD_PAR| Temperature tolerance [K]                                      0.000000
 MD_PAR| Print MD information every                                    1 step(s)
 MD_PAR| File type   Print frequency [steps]                          File names
 MD_PAR| Coordinates          1                               HAP_410_md-pos.xyz
 MD_PAR| Velocities           1                             HAP_410_md-vel-1.xyz
 MD_PAR| Energies             1                                HAP_410_md-1.ener
 MD_PAR| Dump                20                             HAP_410_md-1.restart

 ROT| Rotational analysis information
 ROT| Principal axes and moments of inertia [a.u.]
 ROT|                           1                   2                   3
 ROT| Eigenvalues      1.12801855572E+09   8.53130589080E+09   9.08998861541E+09
 ROT|      x             -0.008951299651      0.999115721669      0.041081004722
 ROT|      y              0.999865730298      0.008378988061      0.014082398018
 ROT|      z             -0.013725728011     -0.041201544553      0.999056573532
 ROT| Number of rotovibrational vectors                                        6

 DOF| Calculation of degrees of freedom
 DOF| Number of atoms                                                        387
 DOF| Number of intramolecular constraints                                     0
 DOF| Number of intermolecular constraints                                     0
 DOF| Invariants (translations + rotations)                                    3
 DOF| Degrees of freedom                                                    1158

 DOF| Restraints information
 DOF| Number of intramolecular restraints                                      0
 DOF| Number of intermolecular restraints                                      0

 THERMOSTAT| Thermostat information for PARTICLES
 THERMOSTAT| Type of thermostat            Canonical Sampling/Velocity Rescaling
 THERMOSTAT| CSVR time constant [fs]                                    1.000000
 THERMOSTAT| Initial kinetic energy                           0.000000000000E+00
 THERMOSTAT| End of thermostat information for PARTICLES

 MD_VEL| Velocities initialization
 MD_VEL| Initial temperature [K]                                      973.000000
 MD_VEL| COM velocity            -0.0000000000    -0.0000000000     0.0000000000

 Extrapolation method: initial_guess

 Number of electrons:                                                       2432
 Number of occupied orbitals:                                               1216
 Number of molecular orbitals:                                              1216

 Number of orbital functions:                                               4983
 Number of independent orbital functions:                                   4983


 SCF WAVEFUNCTION OPTIMIZATION

  ----------------------------------- OT ---------------------------------------
  Minimizer      : DIIS                : direct inversion
                                         in the iterative subspace
                                         using   7 DIIS vectors
                                         safer DIIS on
  Preconditioner : FULL_SINGLE_INVERSE : inversion of 
                                         H + eS - 2*(Sc)(c^T*H*c+const)(Sc)^T
  Precond_solver : DEFAULT
  stepsize       :    0.08000000                  energy_gap     :    0.08000000
  eps_taylor     :   0.10000E-15                  max_taylor     :             4
  ----------------------------------- OT ---------------------------------------

  Step     Update method      Time    Convergence         Total energy    Change
  ------------------------------------------------------------------------------
     1 OT DIIS     0.80E-01   59.2     0.04362517     -5476.4914486566 -5.48E+03
     2 OT DIIS     0.80E-01   22.8     0.04431116     -5670.0823967216 -1.94E+02
     3 OT DIIS     0.80E-01   23.0     0.02620173     -5829.8753784378 -1.60E+02
     4 OT DIIS     0.80E-01   21.7     0.01628129     -5884.1253803132 -5.43E+01
     5 OT DIIS     0.80E-01   19.5     0.00983330     -5911.5988122896 -2.75E+01
     6 OT DIIS     0.80E-01   21.1     0.00882884     -5929.2949572434 -1.77E+01
     7 OT DIIS     0.80E-01   18.7     0.00659408     -5945.4269957904 -1.61E+01
     8 OT DIIS     0.80E-01   17.8     0.00579758     -5956.0208980722 -1.06E+01
     9 OT DIIS     0.80E-01   17.3     0.00481066     -5965.7552437143 -9.73E+00
    10 OT DIIS     0.80E-01   16.9     0.00469201     -5972.7280431064 -6.97E+00
    11 OT DIIS     0.80E-01   16.4     0.00397891     -5978.8885412839 -6.16E+00
    12 OT DIIS     0.80E-01   17.3     0.00348672     -5982.8267105029 -3.94E+00
    13 OT DIIS     0.80E-01   17.7     0.00311215     -5986.1908933816 -3.36E+00
    14 OT DIIS     0.80E-01   18.4     0.00264970     -5989.2040632384 -3.01E+00
    15 OT DIIS     0.80E-01   18.8     0.00246537     -5991.4971866050 -2.29E+00
    16 OT DIIS     0.80E-01   18.7     0.00216112     -5994.1004563019 -2.60E+00
    17 OT DIIS     0.80E-01   17.8     0.00184904     -5996.2591769168 -2.16E+00
    18 OT DIIS     0.80E-01   18.5     0.00175116     -5998.2129648300 -1.95E+00
    19 OT DIIS     0.80E-01   18.4     0.00164606     -5999.6565565715 -1.44E+00
    20 OT DIIS     0.80E-01   16.8     0.00158036     -6000.9920391762 -1.34E+00
    21 OT DIIS     0.80E-01   17.9     0.00150756     -6002.2762474061 -1.28E+00
    22 OT DIIS     0.80E-01   17.8     0.00138091     -6003.3897642079 -1.11E+00
    23 OT DIIS     0.80E-01   17.2     0.00128562     -6004.3747423845 -9.85E-01
    24 OT DIIS     0.80E-01   17.0     0.00116520     -6005.3165883298 -9.42E-01
    25 OT DIIS     0.80E-01   17.3     0.00106106     -6006.1183063804 -8.02E-01
    26 OT DIIS     0.80E-01   18.8     0.00101986     -6006.9432252202 -8.25E-01
    27 OT DIIS     0.80E-01   17.5     0.00099285     -6007.6059006616 -6.63E-01
    28 OT DIIS     0.80E-01   19.2     0.00095491     -6008.2377722778 -6.32E-01
    29 OT DIIS     0.80E-01   18.2     0.00090460     -6008.8031629545 -5.65E-01
    30 OT DIIS     0.80E-01   17.4     0.00083768     -6009.2827394409 -4.80E-01
    31 OT DIIS     0.80E-01   16.9     0.00079474     -6009.7142815576 -4.32E-01
    32 OT DIIS     0.80E-01   17.2     0.00074456     -6010.1296173826 -4.15E-01
    33 OT DIIS     0.80E-01   17.1     0.00069539     -6010.5037272698 -3.74E-01
    34 OT DIIS     0.80E-01   16.6     0.00066640     -6010.8990955905 -3.95E-01
    35 OT DIIS     0.80E-01   16.6     0.00064455     -6011.2058123928 -3.07E-01
    36 OT DIIS     0.80E-01   16.4     0.00061782     -6011.4927585379 -2.87E-01
    37 OT DIIS     0.80E-01   15.2     0.00059700     -6011.7567024534 -2.64E-01
    38 OT DIIS     0.80E-01   16.0     0.00056954     -6011.9929337427 -2.36E-01
    39 OT DIIS     0.80E-01   15.4     0.00054677     -6012.2208566378 -2.28E-01
    40 OT DIIS     0.80E-01   15.1     0.00051934     -6012.4355516103 -2.15E-01
    41 OT DIIS     0.80E-01   16.0     0.00048482     -6012.6232413394 -1.88E-01
    42 OT DIIS     0.80E-01   15.5     0.00046296     -6012.8179913070 -1.95E-01
    43 OT DIIS     0.80E-01   17.1     0.00045316     -6012.9766311937 -1.59E-01
    44 OT DIIS     0.80E-01   17.3     0.00044369     -6013.1357453836 -1.59E-01
    45 OT DIIS     0.80E-01   16.8     0.00043265     -6013.2875015980 -1.52E-01
    46 OT DIIS     0.80E-01   15.8     0.00041360     -6013.4216285299 -1.34E-01
    47 OT DIIS     0.80E-01   16.4     0.00039624     -6013.5469847910 -1.25E-01
    48 OT DIIS     0.80E-01   15.9     0.00037666     -6013.6607418597 -1.14E-01
    49 OT DIIS     0.80E-01   16.0     0.00035919     -6013.7642992708 -1.04E-01
    50 OT DIIS     0.80E-01   17.2     0.00034833     -6013.8815775325 -1.17E-01
    51 OT DIIS     0.80E-01   17.3     0.00034397     -6013.9823950180 -1.01E-01
    52 OT DIIS     0.80E-01   17.3     0.00033386     -6014.0797695154 -9.74E-02
    53 OT DIIS     0.80E-01   17.0     0.00032346     -6014.1680623868 -8.83E-02
    54 OT DIIS     0.80E-01   16.3     0.00031096     -6014.2439539815 -7.59E-02
    55 OT DIIS     0.80E-01   15.6     0.00030166     -6014.3196717452 -7.57E-02
    56 OT DIIS     0.80E-01   15.6     0.00029421     -6014.3936725263 -7.40E-02
    57 OT DIIS     0.80E-01   15.7     0.00028342     -6014.4649983758 -7.13E-02
    58 OT DIIS     0.80E-01   15.1     0.00027236     -6014.5424435097 -7.74E-02
    59 OT DIIS     0.80E-01   15.6     0.00026498     -6014.6033095540 -6.09E-02
    60 OT DIIS     0.80E-01   15.5     0.00025761     -6014.6604424468 -5.71E-02
    61 OT DIIS     0.80E-01   17.3     0.00025328     -6014.7162517367 -5.58E-02
    62 OT DIIS     0.80E-01   16.2     0.00024982     -6014.7704566855 -5.42E-02
    63 OT DIIS     0.80E-01   16.4     0.00024558     -6014.8273783921 -5.69E-02
    64 OT DIIS     0.80E-01   16.6     0.00023598     -6014.8786553330 -5.13E-02
    65 OT DIIS     0.80E-01   16.1     0.00022351     -6014.9223985615 -4.37E-02
    66 OT DIIS     0.80E-01   16.5     0.00021472     -6014.9666120296 -4.42E-02
    67 OT DIIS     0.80E-01   16.5     0.00021270     -6015.0064139360 -3.98E-02
    68 OT DIIS     0.80E-01   19.8     0.00021226     -6015.0508727839 -4.45E-02
    69 OT DIIS     0.80E-01   21.9     0.00021076     -6015.0962613880 -4.54E-02
    70 OT DIIS     0.80E-01   20.6     0.00020380     -6015.1345323388 -3.83E-02
    71 OT DIIS     0.80E-01   20.7     0.00019373     -6015.1687441628 -3.42E-02
    72 OT DIIS     0.80E-01   19.4     0.00018627     -6015.1967511679 -2.80E-02
    73 OT DIIS     0.80E-01   19.3     0.00018208     -6015.2246038432 -2.79E-02
    74 OT DIIS     0.80E-01   19.9     0.00018076     -6015.2616419579 -3.70E-02
    75 OT DIIS     0.80E-01   19.6     0.00018102     -6015.2975755424 -3.59E-02
    76 OT DIIS     0.80E-01   19.0     0.00017533     -6015.3303616869 -3.28E-02
    77 OT DIIS     0.80E-01   18.0     0.00016672     -6015.3559226360 -2.56E-02
    78 OT DIIS     0.80E-01   17.8     0.00016054     -6015.3754527735 -1.95E-02
    79 OT DIIS     0.80E-01   17.2     0.00015957     -6015.3978231299 -2.24E-02
    80 OT DIIS     0.80E-01   22.3     0.00016223     -6015.4255007049 -2.77E-02
    81 OT DIIS     0.80E-01   22.7     0.00016093     -6015.4554980190 -3.00E-02
    82 OT DIIS     0.80E-01   21.4     0.00015210     -6015.4860796931 -3.06E-02
    83 OT DIIS     0.80E-01   23.0     0.00014384     -6015.5057486352 -1.97E-02
    84 OT DIIS     0.80E-01   23.8     0.00013805     -6015.5199405703 -1.42E-02
    85 OT DIIS     0.80E-01   22.9     0.00013877     -6015.5375410972 -1.76E-02
    86 OT DIIS     0.80E-01   17.7     0.00014629     -6015.5636153936 -2.61E-02
    87 OT DIIS     0.80E-01   17.3     0.00014603     -6015.5928342097 -2.92E-02
    88 OT DIIS     0.80E-01   16.5     0.00013876     -6015.6167732274 -2.39E-02
    89 OT DIIS     0.80E-01   15.9     0.00012555     -6015.6337979210 -1.70E-02
    90 OT DIIS     0.80E-01   16.3     0.00011871     -6015.6454633178 -1.17E-02
    91 OT DIIS     0.80E-01   16.4     0.00011776     -6015.6572282105 -1.18E-02
    92 OT DIIS     0.80E-01   15.8     0.00012560     -6015.6815081224 -2.43E-02
    93 OT DIIS     0.80E-01   16.8     0.00012779     -6015.7056624505 -2.42E-02
    94 OT DIIS     0.80E-01   16.2     0.00012252     -6015.7277876108 -2.21E-02
    95 OT DIIS     0.80E-01   17.3     0.00010993     -6015.7454040783 -1.76E-02
    96 OT DIIS     0.80E-01   16.8     0.00010188     -6015.7561825542 -1.08E-02
    97 OT DIIS     0.80E-01   17.5     0.00009881     -6015.7637527794 -7.57E-03
    98 OT DIIS     0.80E-01   16.0     0.00010202     -6015.7783647312 -1.46E-02
    99 OT DIIS     0.80E-01   16.3     0.00010616     -6015.7924446553 -1.41E-02
   100 OT DIIS     0.80E-01   16.2     0.00010579     -6015.8114480433 -1.90E-02

  Leaving inner SCF loop after reaching   100 steps.


  Electronic density on regular grids:      -2432.0000000141       -0.0000000141
  Core density on regular grids:             2431.9999999988       -0.0000000012
  Total charge density on r-space grids:       -0.0000000153
  Total charge density g-space grids:          -0.0000000153

  Overlap energy of the core charge distribution:             327.12070252990281
  Self energy of the core charge distribution:             -16017.19408509233290
  Core Hamiltonian energy:                                   5096.55027541272011
  Hartree energy:                                            6029.06780179253656
  Exchange-correlation energy:                              -1447.95895653117623
  Dispersion energy:                                           -3.39718615491321

  Total energy:                                             -6015.81144804326414

  outer SCF iter =    1 RMS gradient =   0.11E-03 energy =      -6015.8114480433

  ----------------------------------- OT ---------------------------------------
  Minimizer      : DIIS                : direct inversion
                                         in the iterative subspace
                                         using   7 DIIS vectors
                                         safer DIIS on
  Preconditioner : FULL_SINGLE_INVERSE : inversion of 
                                         H + eS - 2*(Sc)(c^T*H*c+const)(Sc)^T
  Precond_solver : DEFAULT
  stepsize       :    0.08000000                  energy_gap     :    0.08000000
  eps_taylor     :   0.10000E-15                  max_taylor     :             4
  ----------------------------------- OT ---------------------------------------

  Step     Update method      Time    Convergence         Total energy    Change
  ------------------------------------------------------------------------------
     1 OT DIIS     0.80E-01   53.6     0.00061884     -6015.8295237545 -1.81E-02
     2 OT DIIS     0.80E-01   17.8     0.00074349     -6015.9457285465 -1.16E-01
     3 OT DIIS     0.80E-01   20.1     0.00124837     -6015.9501216938 -4.39E-03
     4 OT DIIS     0.80E-01   20.3     0.00089559     -6016.0060526175 -5.59E-02
     5 OT DIIS     0.80E-01   20.4     0.00067975     -6016.0460915025 -4.00E-02
     6 OT DIIS     0.80E-01   19.5     0.00060123     -6016.0814592768 -3.54E-02
     7 OT DIIS     0.80E-01   18.9     0.00052447     -6016.1165961443 -3.51E-02
     8 OT DIIS     0.80E-01   19.2     0.00045065     -6016.1468340951 -3.02E-02
     9 OT DIIS     0.80E-01   17.8     0.00043256     -6016.1704027381 -2.36E-02
    10 OT DIIS     0.80E-01   17.5     0.00041996     -6016.1744932301 -4.09E-03
    11 OT DIIS     0.80E-01   21.5     0.00041352     -6016.1920239021 -1.75E-02
    12 OT DIIS     0.80E-01   22.3     0.00043559     -6016.1964482696 -4.42E-03
    13 OT DIIS     0.80E-01   15.5     0.00037249     -6016.2013833611 -4.94E-03
    14 OT DIIS     0.80E-01   15.3     0.00031336     -6016.2069200074 -5.54E-03
    15 OT DIIS     0.80E-01   15.2     0.00026243     -6016.2123788010 -5.46E-03
    16 OT DIIS     0.80E-01   14.9     0.00021903     -6016.2185016961 -6.12E-03
    17 OT DIIS     0.80E-01   14.3     0.00021273     -6016.2262209763 -7.72E-03
    18 OT DIIS     0.80E-01   14.6     0.00023548     -6016.2295580625 -3.34E-03
    19 OT DIIS     0.80E-01   15.1     0.00023163     -6016.2376597007 -8.10E-03
    20 OT DIIS     0.80E-01   14.9     0.00027872     -6016.2420622285 -4.40E-03
    21 OT DIIS     0.80E-01   15.1     0.00028247     -6016.2463219357 -4.26E-03
    22 OT DIIS     0.80E-01   14.9     0.00025943     -6016.2502464835 -3.92E-03
    23 OT DIIS     0.80E-01   15.1     0.00024640     -6016.2532408220 -2.99E-03
    24 OT DIIS     0.80E-01   14.6     0.00020571     -6016.2560044507 -2.76E-03
    25 OT DIIS     0.80E-01   14.7     0.00018062     -6016.2604311762 -4.43E-03
    26 OT DIIS     0.80E-01   14.9     0.00018257     -6016.2627158602 -2.28E-03
    27 OT DIIS     0.80E-01   15.2     0.00016485     -6016.2666033604 -3.89E-03
    28 OT DIIS     0.80E-01   15.5     0.00018282     -6016.2698380968 -3.23E-03
    29 OT DIIS     0.80E-01   15.2     0.00018899     -6016.2731664785 -3.33E-03
    30 OT DIIS     0.80E-01   20.0     0.00018992     -6016.2763359572 -3.17E-03
    31 OT DIIS     0.80E-01   19.1     0.00019688     -6016.2793811144 -3.05E-03
    32 OT DIIS     0.80E-01   18.4     0.00018482     -6016.2813064706 -1.93E-03
    33 OT DIIS     0.80E-01   16.9     0.00016822     -6016.2839906040 -2.68E-03
    34 OT DIIS     0.80E-01   15.7     0.00017333     -6016.2861256053 -2.14E-03
    35 OT DIIS     0.80E-01   12.4     0.00014997     -6016.2876544817 -1.53E-03
    36 OT DIIS     0.80E-01   12.2     0.00014838     -6016.2899058230 -2.25E-03
    37 OT DIIS     0.80E-01   12.1     0.00014114     -6016.2920800905 -2.17E-03
    38 OT DIIS     0.80E-01   12.0     0.00013944     -6016.2942102054 -2.13E-03
    39 OT DIIS     0.80E-01   12.0     0.00014355     -6016.2966866468 -2.48E-03
    40 OT DIIS     0.80E-01   11.7     0.00014698     -6016.2985551561 -1.87E-03
    41 OT DIIS     0.80E-01   11.6     0.00014110     -6016.3006328064 -2.08E-03
    42 OT DIIS     0.80E-01   11.6     0.00015461     -6016.3032735824 -2.64E-03
    43 OT DIIS     0.80E-01   11.8     0.00014547     -6016.3034191609 -1.46E-04
    44 OT DIIS     0.80E-01   11.7     0.00014213     -6016.3050842377 -1.67E-03
    45 OT DIIS     0.80E-01   11.8     0.00012837     -6016.3065601943 -1.48E-03
    46 OT DIIS     0.80E-01   11.8     0.00011891     -6016.3079363948 -1.38E-03
    47 OT DIIS     0.80E-01   11.7     0.00011396     -6016.3096446875 -1.71E-03
    48 OT DIIS     0.80E-01   11.7     0.00011472     -6016.3110799875 -1.44E-03
    49 OT DIIS     0.80E-01   11.6     0.00011046     -6016.3126343440 -1.55E-03
    50 OT DIIS     0.80E-01   11.7     0.00012185     -6016.3152069072 -2.57E-03
    51 OT DIIS     0.80E-01   11.7     0.00012857     -6016.3154389206 -2.32E-04
    52 OT DIIS     0.80E-01   11.7     0.00013125     -6016.3168258939 -1.39E-03
    53 OT DIIS     0.80E-01   11.7     0.00012303     -6016.3179254164 -1.10E-03
    54 OT DIIS     0.80E-01   11.7     0.00011423     -6016.3188293513 -9.04E-04
    55 OT DIIS     0.80E-01   11.9     0.00010422     -6016.3200215469 -1.19E-03
    56 OT DIIS     0.80E-01   12.0     0.00009965     -6016.3210096447 -9.88E-04
    57 OT DIIS     0.80E-01   12.2     0.00009118     -6016.3219929893 -9.83E-04
    58 OT DIIS     0.80E-01   12.1     0.00009448     -6016.3239358150 -1.94E-03
    59 OT DIIS     0.80E-01   12.0     0.00010384     -6016.3245164585 -5.81E-04
    60 OT DIIS     0.80E-01   11.9     0.00010840     -6016.3257418344 -1.23E-03
    61 OT DIIS     0.80E-01   12.2     0.00010867     -6016.3267745233 -1.03E-03
    62 OT DIIS     0.80E-01   12.0     0.00010728     -6016.3275662867 -7.92E-04
    63 OT DIIS     0.80E-01   12.1     0.00009998     -6016.3284420029 -8.76E-04
    64 OT DIIS     0.80E-01   12.1     0.00009553     -6016.3291367677 -6.95E-04
    65 OT DIIS     0.80E-01   12.1     0.00008413     -6016.3296659582 -5.29E-04
    66 OT DIIS     0.80E-01   11.9     0.00008076     -6016.3310997273 -1.43E-03
    67 OT DIIS     0.80E-01   12.1     0.00008540     -6016.3316750379 -5.75E-04
    68 OT DIIS     0.80E-01   12.2     0.00008657     -6016.3326175586 -9.43E-04
    69 OT DIIS     0.80E-01   12.2     0.00008870     -6016.3335452483 -9.28E-04
    70 OT DIIS     0.80E-01   12.1     0.00009175     -6016.3343918753 -8.47E-04
    71 OT DIIS     0.80E-01   12.0     0.00009028     -6016.3351891614 -7.97E-04
    72 OT DIIS     0.80E-01   11.9     0.00009092     -6016.3358371492 -6.48E-04
    73 OT DIIS     0.80E-01   12.2     0.00008246     -6016.3361041195 -2.67E-04
    74 OT DIIS     0.80E-01   11.9     0.00007595     -6016.3371662871 -1.06E-03
    75 OT DIIS     0.80E-01   12.2     0.00007744     -6016.3376495909 -4.83E-04
    76 OT DIIS     0.80E-01   12.0     0.00007475     -6016.3382996305 -6.50E-04
    77 OT DIIS     0.80E-01   12.2     0.00007382     -6016.3390027015 -7.03E-04
    78 OT DIIS     0.80E-01   12.0     0.00007531     -6016.3397465992 -7.44E-04
    79 OT DIIS     0.80E-01   11.9     0.00007592     -6016.3404694562 -7.23E-04
    80 OT DIIS     0.80E-01   12.0     0.00007979     -6016.3411934034 -7.24E-04
    81 OT DIIS     0.80E-01   11.9     0.00007766     -6016.3415353422 -3.42E-04
    82 OT DIIS     0.80E-01   11.9     0.00007273     -6016.3422666900 -7.31E-04
    83 OT DIIS     0.80E-01   12.1     0.00007495     -6016.3427437051 -4.77E-04
    84 OT DIIS     0.80E-01   12.2     0.00007129     -6016.3431555887 -4.12E-04
    85 OT DIIS     0.80E-01   12.1     0.00006739     -6016.3436572712 -5.02E-04
    86 OT DIIS     0.80E-01   12.0     0.00006555     -6016.3442352468 -5.78E-04
    87 OT DIIS     0.80E-01   12.0     0.00006439     -6016.3447939649 -5.59E-04
    88 OT DIIS     0.80E-01   12.0     0.00006687     -6016.3454602826 -6.66E-04
    89 OT DIIS     0.80E-01   12.1     0.00006799     -6016.3459344371 -4.74E-04
    90 OT DIIS     0.80E-01   12.1     0.00006607     -6016.3464712814 -5.37E-04
    91 OT DIIS     0.80E-01   12.0     0.00007041     -6016.3470664968 -5.95E-04
    92 OT DIIS     0.80E-01   12.1     0.00006976     -6016.3473518705 -2.85E-04
    93 OT DIIS     0.80E-01   12.2     0.00006610     -6016.3476978831 -3.46E-04
    94 OT DIIS     0.80E-01   12.2     0.00006242     -6016.3481427696 -4.45E-04
    95 OT DIIS     0.80E-01   12.1     0.00005882     -6016.3485416173 -3.99E-04
    96 OT DIIS     0.80E-01   12.2     0.00005828     -6016.3490739730 -5.32E-04
    97 OT DIIS     0.80E-01   12.0     0.00005878     -6016.3495370102 -4.63E-04
    98 OT DIIS     0.80E-01   11.7     0.00005762     -6016.3499371745 -4.00E-04
    99 OT DIIS     0.80E-01   11.8     0.00006170     -6016.3505963580 -6.59E-04
   100 OT DIIS     0.80E-01   12.0     0.00006445     -6016.3509118127 -3.15E-04

  Leaving inner SCF loop after reaching   100 steps.


  Electronic density on regular grids:      -2432.0000000153       -0.0000000153
  Core density on regular grids:             2431.9999999988       -0.0000000012
  Total charge density on r-space grids:       -0.0000000165
  Total charge density g-space grids:          -0.0000000165

  Overlap energy of the core charge distribution:             327.12070252990281
  Self energy of the core charge distribution:             -16017.19408509233290
  Core Hamiltonian energy:                                   5095.21197100162772
  Hartree energy:                                            6029.71757269293903
  Exchange-correlation energy:                              -1447.80988678987569
  Dispersion energy:                                           -3.39718615491321

  Total energy:                                             -6016.35091181265398

  outer SCF iter =    2 RMS gradient =   0.64E-04 energy =      -6016.3509118127

  ----------------------------------- OT ---------------------------------------
  Minimizer      : DIIS                : direct inversion
                                         in the iterative subspace
                                         using   7 DIIS vectors
                                         safer DIIS on
  Preconditioner : FULL_SINGLE_INVERSE : inversion of 
                                         H + eS - 2*(Sc)(c^T*H*c+const)(Sc)^T
  Precond_solver : DEFAULT
  stepsize       :    0.08000000                  energy_gap     :    0.08000000
  eps_taylor     :   0.10000E-15                  max_taylor     :             4
  ----------------------------------- OT ---------------------------------------

  Step     Update method      Time    Convergence         Total energy    Change
  ------------------------------------------------------------------------------
     1 OT DIIS     0.80E-01   33.5     0.00006885     -6016.3512051410 -2.93E-04
     2 OT DIIS     0.80E-01   11.3     0.00041809     -6016.3482929484  2.91E-03
     3 OT DIIS     0.80E-01   11.3     0.00006461     -6016.3525358137 -4.24E-03
     4 OT DIIS     0.80E-01   11.4     0.00005082     -6016.3527874330 -2.52E-04
     5 OT DIIS     0.80E-01   11.9     0.00007006     -6016.3537269041 -9.39E-04
     6 OT DIIS     0.80E-01   12.0     0.00010218     -6016.3607678865 -7.04E-03
     7 OT DIIS     0.80E-01   11.9     0.00006298     -6016.3660859221 -5.32E-03
     8 OT SD       0.80E-01   12.0     0.00004027     -6016.3666852086 -5.99E-04
     9 OT DIIS     0.80E-01   12.0     0.00012744     -6016.3667885838 -1.03E-04
    10 OT DIIS     0.80E-01   12.2     0.00005991     -6016.3683068534 -1.52E-03
    11 OT DIIS     0.80E-01   12.1     0.00004754     -6016.3694965420 -1.19E-03
    12 OT DIIS     0.80E-01   12.1     0.00004553     -6016.3696057865 -1.09E-04
    13 OT DIIS     0.80E-01   12.1     0.00006153     -6016.3697690940 -1.63E-04
    14 OT DIIS     0.80E-01   12.0     0.00006133     -6016.3706611682 -8.92E-04
    15 OT SD       0.80E-01   12.2     0.00004611     -6016.3723004911 -1.64E-03
    16 OT DIIS     0.80E-01   12.2     0.00029273     -6016.3703038635  2.00E-03
    17 OT DIIS     0.80E-01   11.9     0.00004051     -6016.3721681385 -1.86E-03
    18 OT DIIS     0.80E-01   12.1     0.00003280     -6016.3733860981 -1.22E-03
    19 OT SD       0.80E-01   12.2     0.00003789     -6016.3734701589 -8.41E-05
    20 OT DIIS     0.80E-01   12.1     0.00026345     -6016.3720022409  1.47E-03
    21 OT DIIS     0.80E-01   12.2     0.00003723     -6016.3738465279 -1.84E-03
    22 OT SD       0.80E-01   12.2     0.00003636     -6016.3750596788 -1.21E-03
    23 OT DIIS     0.80E-01   12.1     0.00024993     -6016.3736898356  1.37E-03
    24 OT DIIS     0.80E-01   12.1     0.00003505     -6016.3748219938 -1.13E-03
    25 OT DIIS     0.80E-01   11.9     0.00003187     -6016.3757631087 -9.41E-04
    26 OT SD       0.80E-01   12.0     0.00002717     -6016.3763345621 -5.71E-04
    27 OT DIIS     0.80E-01   12.1     0.00015570     -6016.3758132030  5.21E-04
    28 OT DIIS     0.80E-01   12.0     0.00002759     -6016.3763651358 -5.52E-04
    29 OT SD       0.80E-01   12.1     0.00002825     -6016.3768169603 -4.52E-04
    30 OT DIIS     0.80E-01   12.1     0.00020642     -6016.3759011841  9.16E-04
    31 OT DIIS     0.80E-01   12.0     0.00002012     -6016.3768659595 -9.65E-04
    32 OT DIIS     0.80E-01   12.0     0.00002262     -6016.3773179786 -4.52E-04
    33 OT SD       0.80E-01   12.0     0.00003024     -6016.3774124610 -9.45E-05
    34 OT DIIS     0.80E-01   12.0     0.00023062     -6016.3762109576  1.20E-03
    35 OT DIIS     0.80E-01   12.0     0.00002572     -6016.3774395074 -1.23E-03
    36 OT SD       0.80E-01   12.2     0.00002277     -6016.3778484518 -4.09E-04
    37 OT DIIS     0.80E-01   12.1     0.00014656     -6016.3773689772  4.79E-04
    38 OT DIIS     0.80E-01   12.1     0.00002132     -6016.3778923766 -5.23E-04
    39 OT DIIS     0.80E-01   12.3     0.00002115     -6016.3783827336 -4.90E-04
    40 OT SD       0.80E-01   12.2     0.00002364     -6016.3786559389 -2.73E-04
    41 OT DIIS     0.80E-01   12.0     0.00016513     -6016.3780124534  6.43E-04
    42 OT DIIS     0.80E-01   11.9     0.00001962     -6016.3785262141 -5.14E-04
    43 OT SD       0.80E-01   12.0     0.00001634     -6016.3788587260 -3.33E-04
    44 OT DIIS     0.80E-01   12.1     0.00010365     -6016.3786408289  2.18E-04
    45 OT DIIS     0.80E-01   12.1     0.00001433     -6016.3788825211 -2.42E-04
    46 OT DIIS     0.80E-01   12.0     0.00001287     -6016.3789625073 -8.00E-05
    47 OT SD       0.80E-01   12.0     0.00001269     -6016.3792661237 -3.04E-04
    48 OT DIIS     0.80E-01   12.0     0.00006439     -6016.3792047381  6.14E-05
    49 OT DIIS     0.80E-01   11.9     0.00001217     -6016.3792351828 -3.04E-05
    50 OT DIIS     0.80E-01   11.8     0.00001311     -6016.3793926655 -1.57E-04
    51 OT DIIS     0.80E-01   12.2     0.00001072     -6016.3794102109 -1.75E-05
    52 OT SD       0.80E-01   12.2     0.00001117     -6016.3795376110 -1.27E-04
    53 OT DIIS     0.80E-01   11.9     0.00004979     -6016.3795072253  3.04E-05
    54 OT SD       0.80E-01   12.2     0.00001471     -6016.3797385920 -2.31E-04
    55 OT DIIS     0.80E-01   11.9     0.00009662     -6016.3795349397  2.04E-04
    56 OT DIIS     0.80E-01   12.1     0.00001136     -6016.3797024339 -1.67E-04
    57 OT SD       0.80E-01   12.0     0.00001104     -6016.3798826071 -1.80E-04
    58 OT DIIS     0.80E-01   12.1     0.00006097     -6016.3798220116  6.06E-05
    59 OT SD       0.80E-01   12.1     0.00001518     -6016.3800416997 -2.20E-04
    60 OT DIIS     0.80E-01   12.1     0.00010296     -6016.3797948141  2.47E-04
    61 OT DIIS     0.80E-01   12.1     0.00001139     -6016.3800529987 -2.58E-04
    62 OT DIIS     0.80E-01   11.9     0.00000880     -6016.3801208466 -6.78E-05

  *** SCF run converged in    62 steps ***


  Electronic density on regular grids:      -2432.0000000152       -0.0000000152
  Core density on regular grids:             2431.9999999988       -0.0000000012
  Total charge density on r-space grids:       -0.0000000164
  Total charge density g-space grids:          -0.0000000164

  Overlap energy of the core charge distribution:             327.12070252990281
  Self energy of the core charge distribution:             -16017.19408509233290
  Core Hamiltonian energy:                                   5095.12402229454710
  Hartree energy:                                            6029.76717369385460
  Exchange-correlation energy:                              -1447.80074811763484
  Dispersion energy:                                           -3.39718615491321

  Total energy:                                             -6016.38012084657657

  outer SCF iter =    3 RMS gradient =   0.88E-05 energy =      -6016.3801208466
  outer SCF loop converged in   3 iterations or  262 steps


 ENERGY| Total FORCE_EVAL ( QS ) energy [hartree]          -6016.380228288112448

 MD_INI| MD initialization
 MD_INI| Potential energy [hartree]                          -0.601638022829E+04
 MD_INI| Kinetic energy [hartree]                             0.178407925950E+01
 MD_INI| Temperature [K]                                              973.000000
 MD_INI| Pressure [bar]                                       4.562616968630E+06
 MD_INI| Cell volume [bohr^3]                                 1.308601720879E+05
 MD_INI| Cell volume [ang^3]                                  1.939147658976E+04
 MD_INI| Cell lengths [bohr]      6.16914211E+01  4.40970598E+01  4.81031015E+01
 MD_INI| Cell lengths [ang]       3.26456940E+01  2.33351590E+01  2.54550650E+01
 MD_INI| Cell angles [deg]        9.00000000E+01  9.00000000E+01  9.00000000E+01

 Extrapolation method: ASPC

 Number of electrons:                                                       2432
 Number of occupied orbitals:                                               1216
 Number of molecular orbitals:                                              1216

 Number of orbital functions:                                               4983
 Number of independent orbital functions:                                   4983


 SCF WAVEFUNCTION OPTIMIZATION

  ----------------------------------- OT ---------------------------------------
  Minimizer      : DIIS                : direct inversion
                                         in the iterative subspace
                                         using   7 DIIS vectors
                                         safer DIIS on
  Preconditioner : FULL_SINGLE_INVERSE : inversion of 
                                         H + eS - 2*(Sc)(c^T*H*c+const)(Sc)^T
  Precond_solver : DEFAULT
  stepsize       :    0.08000000                  energy_gap     :    0.08000000
  eps_taylor     :   0.10000E-15                  max_taylor     :             4
  ----------------------------------- OT ---------------------------------------

  Step     Update method      Time    Convergence         Total energy    Change
  ------------------------------------------------------------------------------
     1 OT DIIS     0.80E-01   20.9     0.00640353     -6452.6051215937 -6.45E+03
     2 OT DIIS     0.80E-01   12.6     0.00467496     -6470.5973272266 -1.80E+01
     3 OT DIIS     0.80E-01   12.7     0.00381686     -6479.8253682075 -9.23E+00
     4 OT DIIS     0.80E-01   12.6     0.00172585     -6483.1246295449 -3.30E+00
     5 OT DIIS     0.80E-01   12.8     0.00160877     -6484.9266816309 -1.80E+00
     6 OT DIIS     0.80E-01   12.8     0.00110823     -6485.3445011580 -4.18E-01
     7 OT DIIS     0.80E-01   12.3     0.00062479     -6485.9925830764 -6.48E-01
     8 OT DIIS     0.80E-01   12.5     0.00038373     -6486.3832291227 -3.91E-01
     9 OT DIIS     0.80E-01   12.6     0.00030460     -6486.6252018775 -2.42E-01
    10 OT DIIS     0.80E-01   12.7     0.00027299     -6486.7247850859 -9.96E-02
    11 OT DIIS     0.80E-01   12.4     0.00023274     -6486.9460529517 -2.21E-01
    12 OT DIIS     0.80E-01   12.9     0.00021502     -6487.0522284978 -1.06E-01
    13 OT DIIS     0.80E-01   12.6     0.00019413     -6487.1994397204 -1.47E-01
    14 OT DIIS     0.80E-01   12.6     0.00018733     -6487.2807265454 -8.13E-02
    15 OT DIIS     0.80E-01   12.5     0.00016897     -6487.3658116491 -8.51E-02
    16 OT DIIS     0.80E-01   12.7     0.00016215     -6487.4358305687 -7.00E-02
    17 OT DIIS     0.80E-01   12.7     0.00014531     -6487.5264042603 -9.06E-02
    18 OT DIIS     0.80E-01   12.8     0.00015299     -6487.5871042992 -6.07E-02
    19 OT DIIS     0.80E-01   12.6     0.00013353     -6487.6270199729 -3.99E-02
    20 OT DIIS     0.80E-01   12.8     0.00013075     -6487.6448625770 -1.78E-02
    21 OT DIIS     0.80E-01   12.8     0.00012377     -6487.6725377068 -2.77E-02
    22 OT DIIS     0.80E-01   12.7     0.00011079     -6487.7087221899 -3.62E-02
    23 OT DIIS     0.80E-01   12.5     0.00008927     -6487.7932701804 -8.45E-02
    24 OT DIIS     0.80E-01   12.6     0.00007953     -6487.8190821477 -2.58E-02
    25 OT DIIS     0.80E-01   12.7     0.00008248     -6487.8378572626 -1.88E-02
    26 OT DIIS     0.80E-01   12.6     0.00006740     -6487.8514771589 -1.36E-02
    27 OT DIIS     0.80E-01   12.3     0.00007517     -6487.8622858484 -1.08E-02
    28 OT DIIS     0.80E-01   12.6     0.00005674     -6487.8838333080 -2.15E-02
    29 OT DIIS     0.80E-01   12.4     0.00005867     -6487.9010488974 -1.72E-02
    30 OT DIIS     0.80E-01   12.5     0.00004790     -6487.9068432886 -5.79E-03
    31 OT DIIS     0.80E-01   12.8     0.00004970     -6487.9124828567 -5.64E-03
    32 OT DIIS     0.80E-01   12.5     0.00004557     -6487.9148017383 -2.32E-03
    33 OT DIIS     0.80E-01   12.6     0.00003849     -6487.9284993832 -1.37E-02
    34 OT DIIS     0.80E-01   12.7     0.00004214     -6487.9328526255 -4.35E-03
    35 OT DIIS     0.80E-01   12.6     0.00003459     -6487.9375648628 -4.71E-03
    36 OT DIIS     0.80E-01   12.7     0.00004433     -6487.9421624521 -4.60E-03
    37 OT DIIS     0.80E-01   12.6     0.00004270     -6487.9432378170 -1.08E-03
    38 OT DIIS     0.80E-01   12.7     0.00003732     -6487.9466224890 -3.38E-03
    39 OT DIIS     0.80E-01   12.9     0.00002970     -6487.9517357129 -5.11E-03
    40 OT DIIS     0.80E-01   12.8     0.00002800     -6487.9620171029 -1.03E-02
    41 OT DIIS     0.80E-01   12.6     0.00002581     -6487.9634658509 -1.45E-03
    42 OT DIIS     0.80E-01   12.8     0.00002460     -6487.9652997141 -1.83E-03
    43 OT DIIS     0.80E-01   12.9     0.00002405     -6487.9702058022 -4.91E-03
    44 OT DIIS     0.80E-01   12.5     0.00002338     -6487.9707652631 -5.59E-04
    45 OT DIIS     0.80E-01   12.6     0.00002297     -6487.9728072578 -2.04E-03
    46 OT DIIS     0.80E-01   12.5     0.00002172     -6487.9757282566 -2.92E-03
    47 OT DIIS     0.80E-01   12.6     0.00001933     -6487.9807316188 -5.00E-03
    48 OT DIIS     0.80E-01   12.8     0.00001869     -6487.9819244340 -1.19E-03
    49 OT DIIS     0.80E-01   12.8     0.00001709     -6487.9853211719 -3.40E-03
    50 OT DIIS     0.80E-01   12.5     0.00001669     -6487.9862787356 -9.58E-04
    51 OT DIIS     0.80E-01   12.6     0.00001628     -6487.9886335114 -2.35E-03
    52 OT DIIS     0.80E-01   12.7     0.00001549     -6487.9897209791 -1.09E-03
    53 OT DIIS     0.80E-01   12.6     0.00001543     -6487.9922353688 -2.51E-03
    54 OT DIIS     0.80E-01   12.7     0.00001386     -6487.9932088333 -9.73E-04
    55 OT DIIS     0.80E-01   12.7     0.00001415     -6487.9951721986 -1.96E-03
    56 OT DIIS     0.80E-01   12.8     0.00001276     -6487.9957652066 -5.93E-04
    57 OT SD       0.80E-01   12.4     0.00001347     -6487.9961096012 -3.44E-04
    58 OT DIIS     0.80E-01   12.7     0.00001251     -6487.9961921638 -8.26E-05
    59 OT DIIS     0.80E-01   12.9     0.00001265     -6487.9965732199 -3.81E-04
    60 OT DIIS     0.80E-01   12.5     0.00001215     -6487.9971348099 -5.62E-04
    61 OT DIIS     0.80E-01   12.7     0.00001150     -6487.9982945954 -1.16E-03
    62 OT DIIS     0.80E-01   12.4     0.00001115     -6487.9996942573 -1.40E-03
    63 OT DIIS     0.80E-01   12.6     0.00001189     -6488.0006373679 -9.43E-04
    64 OT DIIS     0.80E-01   12.6     0.00001176     -6488.0028564958 -2.22E-03
    65 OT DIIS     0.80E-01   12.6     0.00001165     -6488.0029172892 -6.08E-05
    66 OT SD       0.80E-01   12.5     0.00001005     -6488.0049220961 -2.00E-03
    67 OT SD       0.80E-01   12.8     0.00000912     -6488.0049672178 -4.51E-05

  *** SCF run converged in    67 steps ***


  Electronic density on regular grids:      -2432.0000000267       -0.0000000267
  Core density on regular grids:             2431.9999999988       -0.0000000012
  Total charge density on r-space grids:       -0.0000000279
  Total charge density g-space grids:          -0.0000000279

  Overlap energy of the core charge distribution:              31.36341482993476
  Self energy of the core charge distribution:             -16017.19408509233290
  Core Hamiltonian energy:                                   5009.33415231241725
  Hartree energy:                                            5930.80256533105876
  Exchange-correlation energy:                              -1439.40610325764305
  Dispersion energy:                                           -2.90491134120461

  Total energy:                                             -6488.00496721777017

  outer SCF iter =    1 RMS gradient =   0.91E-05 energy =      -6488.0049672178
  outer SCF loop converged in   1 iterations or   67 steps


 ENERGY| Total FORCE_EVAL ( QS ) energy [hartree]          -6488.005007175211176

 MD| ***************************************************************************
 MD| Step number                                                               1
 MD| Time [fs]                                                          0.250000
 MD| Conserved quantity [hartree]                            -0.602844064722E+04
 MD| ---------------------------------------------------------------------------
 MD|                                          Instantaneous             Averages
 MD| CPU time per MD step [s]                   4911.671900          4911.671900
 MD| Energy drift per atom [K]          -0.112964897714E+05   0.000000000000E+00
 MD| Potential energy [hartree]         -0.648800500718E+04  -0.648800500718E+04
 MD| Kinetic energy [hartree]            0.406242003083E+03   0.406242003083E+03
 MD| Temperature [K]                          221556.002568        221556.002568
 MD| Pressure [bar]                      4.268704586686E+06   4.268704586686E+06
 MD| ***************************************************************************
 MD| Estimated peak process memory after this step [MiB]                   18566

 Extrapolation method: ASPC

 Number of electrons:                                                       2432
 Number of occupied orbitals:                                               1216
 Number of molecular orbitals:                                              1216

 Number of orbital functions:                                               4983
 Number of independent orbital functions:                                   4983


 SCF WAVEFUNCTION OPTIMIZATION

  ----------------------------------- OT ---------------------------------------
  Minimizer      : DIIS                : direct inversion
                                         in the iterative subspace
                                         using   7 DIIS vectors
                                         safer DIIS on
  Preconditioner : FULL_SINGLE_INVERSE : inversion of 
                                         H + eS - 2*(Sc)(c^T*H*c+const)(Sc)^T
  Precond_solver : DEFAULT
  stepsize       :    0.08000000                  energy_gap     :    0.08000000
  eps_taylor     :   0.10000E-15                  max_taylor     :             4
  ----------------------------------- OT ---------------------------------------

  Step     Update method      Time    Convergence         Total energy    Change
  ------------------------------------------------------------------------------
     1 OT DIIS     0.80E-01   21.6     0.00699658     -6580.1469749361 -6.58E+03
     2 OT DIIS     0.80E-01   12.5     0.00450480     -6599.2435537149 -1.91E+01
     3 OT DIIS     0.80E-01   12.4     0.00309650     -6604.4381249663 -5.19E+00
     4 OT DIIS     0.80E-01   12.1     0.00265348     -6606.7385640040 -2.30E+00
     5 OT DIIS     0.80E-01   12.7     0.00172851     -6607.9035390914 -1.16E+00
     6 OT DIIS     0.80E-01   12.6     0.00107410     -6609.8104392701 -1.91E+00
     7 OT DIIS     0.80E-01   12.7     0.00071427     -6610.1378617531 -3.27E-01
     8 OT DIIS     0.80E-01   12.8     0.00071061     -6610.3566702601 -2.19E-01
     9 OT DIIS     0.80E-01   12.7     0.00043766     -6610.4975641870 -1.41E-01
    10 OT DIIS     0.80E-01   12.7     0.00036633     -6610.6211142250 -1.24E-01
    11 OT DIIS     0.80E-01   12.5     0.00032032     -6610.7072362277 -8.61E-02
    12 OT DIIS     0.80E-01   12.7     0.00024614     -6610.7711361562 -6.39E-02
    13 OT DIIS     0.80E-01   12.4     0.00021874     -6610.8156496297 -4.45E-02
    14 OT DIIS     0.80E-01   12.5     0.00018632     -6610.8515747301 -3.59E-02
    15 OT DIIS     0.80E-01   12.8     0.00016509     -6610.8816769559 -3.01E-02
    16 OT DIIS     0.80E-01   12.9     0.00015799     -6610.9049988844 -2.33E-02
    17 OT DIIS     0.80E-01   12.7     0.00014723     -6610.9214062691 -1.64E-02
    18 OT DIIS     0.80E-01   12.7     0.00012639     -6610.9384800720 -1.71E-02
    19 OT DIIS     0.80E-01   12.6     0.00012344     -6610.9540873724 -1.56E-02
    20 OT DIIS     0.80E-01   12.7     0.00011004     -6610.9666461631 -1.26E-02
    21 OT DIIS     0.80E-01   12.7     0.00010491     -6610.9797826626 -1.31E-02
    22 OT DIIS     0.80E-01   12.6     0.00009545     -6610.9896214475 -9.84E-03
    23 OT DIIS     0.80E-01   12.3     0.00008948     -6611.0009006513 -1.13E-02
    24 OT DIIS     0.80E-01   12.6     0.00008770     -6611.0098194939 -8.92E-03
    25 OT DIIS     0.80E-01   12.8     0.00008565     -6611.0185763051 -8.76E-03
    26 OT DIIS     0.80E-01   12.9     0.00007919     -6611.0266655325 -8.09E-03
    27 OT DIIS     0.80E-01   12.5     0.00007645     -6611.0355946451 -8.93E-03
    28 OT DIIS     0.80E-01   12.5     0.00007114     -6611.0422298412 -6.64E-03
    29 OT DIIS     0.80E-01   12.7     0.00006986     -6611.0493404948 -7.11E-03
    30 OT DIIS     0.80E-01   12.5     0.00006507     -6611.0548121210 -5.47E-03
    31 OT DIIS     0.80E-01   12.5     0.00006157     -6611.0618879489 -7.08E-03
    32 OT DIIS     0.80E-01   12.4     0.00006057     -6611.0673320337 -5.44E-03
    33 OT DIIS     0.80E-01   12.7     0.00005942     -6611.0728316582 -5.50E-03
    34 OT DIIS     0.80E-01   12.6     0.00005609     -6611.0771084941 -4.28E-03
    35 OT DIIS     0.80E-01   12.5     0.00005447     -6611.0820900116 -4.98E-03
    36 OT DIIS     0.80E-01   12.7     0.00005193     -6611.0860291122 -3.94E-03
    37 OT DIIS     0.80E-01   12.6     0.00005129     -6611.0903090487 -4.28E-03
    38 OT DIIS     0.80E-01   12.5     0.00004884     -6611.0935929637 -3.28E-03
    39 OT DIIS     0.80E-01   12.7     0.00004658     -6611.0978410816 -4.25E-03
    40 OT DIIS     0.80E-01   12.6     0.00004552     -6611.1011321121 -3.29E-03
    41 OT DIIS     0.80E-01   12.6     0.00004486     -6611.1044436434 -3.31E-03
    42 OT DIIS     0.80E-01   12.4     0.00004338     -6611.1069720848 -2.53E-03
    43 OT DIIS     0.80E-01   12.5     0.00004228     -6611.1101652000 -3.19E-03
    44 OT DIIS     0.80E-01   12.7     0.00004101     -6611.1128467680 -2.68E-03
    45 OT DIIS     0.80E-01   12.6     0.00004037     -6611.1157766113 -2.93E-03
    46 OT DIIS     0.80E-01   12.5     0.00003929     -6611.1179163351 -2.14E-03
    47 OT DIIS     0.80E-01   12.5     0.00003749     -6611.1205966564 -2.68E-03
    48 OT DIIS     0.80E-01   12.7     0.00003678     -6611.1227765615 -2.18E-03
    49 OT DIIS     0.80E-01   12.5     0.00003633     -6611.1250312997 -2.25E-03
    50 OT DIIS     0.80E-01   12.4     0.00003563     -6611.1268136108 -1.78E-03
    51 OT DIIS     0.80E-01   12.6     0.00003479     -6611.1291737671 -2.36E-03
    52 OT DIIS     0.80E-01   12.5     0.00003409     -6611.1312005657 -2.03E-03
    53 OT DIIS     0.80E-01   12.8     0.00003341     -6611.1333651938 -2.16E-03
    54 OT DIIS     0.80E-01   12.7     0.00003292     -6611.1348928585 -1.53E-03
    55 OT DIIS     0.80E-01   12.5     0.00003163     -6611.1368377285 -1.94E-03
    56 OT DIIS     0.80E-01   12.7     0.00003114     -6611.1385181196 -1.68E-03
    57 OT DIIS     0.80E-01   12.7     0.00003081     -6611.1403031573 -1.79E-03
    58 OT DIIS     0.80E-01   12.9     0.00003036     -6611.1417267326 -1.42E-03
    59 OT DIIS     0.80E-01   12.7     0.00002967     -6611.1435605594 -1.83E-03
    60 OT DIIS     0.80E-01   12.8     0.00002916     -6611.1451345571 -1.57E-03
    61 OT DIIS     0.80E-01   12.8     0.00002865     -6611.1467919199 -1.66E-03
    62 OT DIIS     0.80E-01   12.6     0.00002845     -6611.1480277059 -1.24E-03
    63 OT DIIS     0.80E-01   12.7     0.00002748     -6611.1496033937 -1.58E-03
    64 OT DIIS     0.80E-01   12.4     0.00002710     -6611.1510521817 -1.45E-03
    65 OT DIIS     0.80E-01   12.7     0.00002681     -6611.1525464655 -1.49E-03
    66 OT DIIS     0.80E-01   12.3     0.00002641     -6611.1537087092 -1.16E-03
    67 OT DIIS     0.80E-01   12.5     0.00002584     -6611.1551315461 -1.42E-03
    68 OT DIIS     0.80E-01   12.8     0.00002552     -6611.1564030672 -1.27E-03
    69 OT DIIS     0.80E-01   12.8     0.00002513     -6611.1577608641 -1.36E-03
    70 OT DIIS     0.80E-01   12.6     0.00002507     -6611.1588363489 -1.08E-03
    71 OT DIIS     0.80E-01   12.4     0.00002425     -6611.1601777719 -1.34E-03
    72 OT DIIS     0.80E-01   12.5     0.00002392     -6611.1614176509 -1.24E-03
    73 OT DIIS     0.80E-01   12.5     0.00002363     -6611.1626306959 -1.21E-03
    74 OT DIIS     0.80E-01   12.8     0.00002331     -6611.1635665640 -9.36E-04
    75 OT DIIS     0.80E-01   12.7     0.00002288     -6611.1647055185 -1.14E-03
    76 OT DIIS     0.80E-01   12.8     0.00002264     -6611.1657716236 -1.07E-03
    77 OT DIIS     0.80E-01   12.7     0.00002234     -6611.1669228118 -1.15E-03
    78 OT DIIS     0.80E-01   12.8     0.00002230     -6611.1678545621 -9.32E-04
    79 OT DIIS     0.80E-01   12.6     0.00002159     -6611.1689494198 -1.09E-03
    80 OT DIIS     0.80E-01   12.7     0.00002129     -6611.1699552955 -1.01E-03
    81 OT DIIS     0.80E-01   12.5     0.00002106     -6611.1709218866 -9.67E-04
    82 OT DIIS     0.80E-01   12.5     0.00002081     -6611.1716930094 -7.71E-04
    83 OT DIIS     0.80E-01   12.5     0.00002046     -6611.1726288582 -9.36E-04
    84 OT DIIS     0.80E-01   12.5     0.00002027     -6611.1735310925 -9.02E-04
    85 OT DIIS     0.80E-01   12.5     0.00002000     -6611.1744719267 -9.41E-04
    86 OT DIIS     0.80E-01   12.8     0.00001993     -6611.1752275241 -7.56E-04
    87 OT DIIS     0.80E-01   12.6     0.00001937     -6611.1760674022 -8.40E-04
    88 OT DIIS     0.80E-01   12.5     0.00001912     -6611.1768661368 -7.99E-04
    89 OT DIIS     0.80E-01   12.7     0.00001894     -6611.1776400728 -7.74E-04
    90 OT DIIS     0.80E-01   12.6     0.00001875     -6611.1782849197 -6.45E-04
    91 OT DIIS     0.80E-01   12.6     0.00001845     -6611.1790431481 -7.58E-04
    92 OT DIIS     0.80E-01   12.6     0.00001826     -6611.1797628383 -7.20E-04
    93 OT DIIS     0.80E-01   12.7     0.00001802     -6611.1804752272 -7.12E-04
    94 OT DIIS     0.80E-01   12.7     0.00001796     -6611.1810599483 -5.85E-04
    95 OT DIIS     0.80E-01   12.5     0.00001754     -6611.1816986450 -6.39E-04
    96 OT DIIS     0.80E-01   12.6     0.00001734     -6611.1823457013 -6.47E-04
    97 OT DIIS     0.80E-01   12.5     0.00001721     -6611.1829802680 -6.35E-04
    98 OT DIIS     0.80E-01   12.5     0.00001703     -6611.1835144906 -5.34E-04
    99 OT DIIS     0.80E-01   12.8     0.00001676     -6611.1841022623 -5.88E-04
   100 OT DIIS     0.80E-01   12.7     0.00001658     -6611.1846542836 -5.52E-04

  Leaving inner SCF loop after reaching   100 steps.


  Electronic density on regular grids:      -2432.0000000179       -0.0000000179
  Core density on regular grids:             2431.9999999988       -0.0000000012
  Total charge density on r-space grids:       -0.0000000191
  Total charge density g-space grids:          -0.0000000191

  Overlap energy of the core charge distribution:               6.92698813526687
  Self energy of the core charge distribution:             -16017.19408509233290
  Core Hamiltonian energy:                                   4931.43401046056988
  Hartree energy:                                            5900.03509369317999
  Exchange-correlation energy:                              -1429.55957361812443
  Dispersion energy:                                           -2.82708786219312

  Total energy:                                             -6611.18465428363379

  outer SCF iter =    1 RMS gradient =   0.17E-04 energy =      -6611.1846542836

  ----------------------------------- OT ---------------------------------------
  Minimizer      : DIIS                : direct inversion
                                         in the iterative subspace
                                         using   7 DIIS vectors
                                         safer DIIS on
  Preconditioner : FULL_SINGLE_INVERSE : inversion of 
                                         H + eS - 2*(Sc)(c^T*H*c+const)(Sc)^T
  Precond_solver : DEFAULT
  stepsize       :    0.08000000                  energy_gap     :    0.08000000
  eps_taylor     :   0.10000E-15                  max_taylor     :             4
  ----------------------------------- OT ---------------------------------------

  Step     Update method      Time    Convergence         Total energy    Change
  ------------------------------------------------------------------------------
     1 OT DIIS     0.80E-01   38.7     0.00007392     -6611.1851944107 -5.40E-04
     2 OT DIIS     0.80E-01   12.0     0.00006704     -6611.1875813869 -2.39E-03
     3 OT DIIS     0.80E-01   11.8     0.00013897     -6611.1888370472 -1.26E-03
     4 OT DIIS     0.80E-01   12.1     0.00010977     -6611.1905544235 -1.72E-03
     5 OT DIIS     0.80E-01   12.3     0.00008582     -6611.1923035810 -1.75E-03
     6 OT DIIS     0.80E-01   12.1     0.00007984     -6611.1935171326 -1.21E-03
     7 OT DIIS     0.80E-01   12.4     0.00007931     -6611.1948191769 -1.30E-03
     8 OT DIIS     0.80E-01   12.8     0.00006825     -6611.1959176109 -1.10E-03
     9 OT DIIS     0.80E-01   12.7     0.00005718     -6611.1969318237 -1.01E-03
    10 OT DIIS     0.80E-01   12.7     0.00006393     -6611.1972622103 -3.30E-04
    11 OT DIIS     0.80E-01   12.4     0.00006286     -6611.1981143389 -8.52E-04
    12 OT DIIS     0.80E-01   12.6     0.00007345     -6611.1983681934 -2.54E-04
    13 OT DIIS     0.80E-01   12.6     0.00005799     -6611.1984842735 -1.16E-04
    14 OT DIIS     0.80E-01   12.6     0.00005477     -6611.1986789163 -1.95E-04
    15 OT DIIS     0.80E-01   12.7     0.00005095     -6611.1989740321 -2.95E-04
    16 OT DIIS     0.80E-01   12.8     0.00004641     -6611.1992723007 -2.98E-04
    17 OT DIIS     0.80E-01   12.6     0.00004162     -6611.1995319443 -2.60E-04
    18 OT DIIS     0.80E-01   12.5     0.00004326     -6611.1998435050 -3.12E-04
    19 OT DIIS     0.80E-01   12.7     0.00004347     -6611.2002961401 -4.53E-04
    20 OT DIIS     0.80E-01   12.6     0.00005173     -6611.2006528412 -3.57E-04
    21 OT DIIS     0.80E-01   12.7     0.00004954     -6611.2007854138 -1.33E-04
    22 OT DIIS     0.80E-01   12.6     0.00004950     -6611.2010576612 -2.72E-04
    23 OT DIIS     0.80E-01   12.6     0.00004963     -6611.2013896050 -3.32E-04
    24 OT DIIS     0.80E-01   12.8     0.00004795     -6611.2016330967 -2.43E-04
    25 OT DIIS     0.80E-01   12.6     0.00004121     -6611.2016395981 -6.50E-06
    26 OT DIIS     0.80E-01   12.8     0.00004011     -6611.2019180562 -2.78E-04
    27 OT DIIS     0.80E-01   12.5     0.00003867     -6611.2022128084 -2.95E-04
    28 OT DIIS     0.80E-01   12.7     0.00004183     -6611.2025161762 -3.03E-04
    29 OT DIIS     0.80E-01   12.5     0.00004178     -6611.2026401256 -1.24E-04
    30 OT DIIS     0.80E-01   13.0     0.00004220     -6611.2029222678 -2.82E-04
    31 OT DIIS     0.80E-01   12.6     0.00004349     -6611.2033212899 -3.99E-04
    32 OT SD       0.80E-01   12.7     0.00004650     -6611.2036318853 -3.11E-04
    33 OT DIIS     0.80E-01   12.5     0.00029137     -6611.2022090872  1.42E-03
    34 OT DIIS     0.80E-01   12.7     0.00004497     -6611.2041501415 -1.94E-03
    35 OT DIIS     0.80E-01   12.6     0.00004178     -6611.2044569827 -3.07E-04
    36 OT DIIS     0.80E-01   12.6     0.00004373     -6611.2046972242 -2.40E-04
    37 OT DIIS     0.80E-01   12.7     0.00004053     -6611.2047442131 -4.70E-05
    38 OT DIIS     0.80E-01   12.4     0.00003869     -6611.2048196525 -7.54E-05
    39 OT SD       0.80E-01   12.9     0.00006274     -6611.2084464653 -3.63E-03
    40 OT DIIS     0.80E-01   12.7     0.00039110     -6611.2046476394  3.80E-03
    41 OT DIIS     0.80E-01   12.6     0.00006059     -6611.2077448538 -3.10E-03
    42 OT DIIS     0.80E-01   12.6     0.00006975     -6611.2097191447 -1.97E-03
    43 OT DIIS     0.80E-01   12.4     0.00006495     -6611.2136325837 -3.91E-03
    44 OT SD       0.80E-01   12.6     0.00003798     -6611.2138893143 -2.57E-04
    45 OT DIIS     0.80E-01   12.6     0.00016720     -6611.2132795924  6.10E-04
    46 OT DIIS     0.80E-01   12.9     0.00005726     -6611.2131454807  1.34E-04
    47 OT DIIS     0.80E-01   12.7     0.00003227     -6611.2137477126 -6.02E-04
    48 OT DIIS     0.80E-01   12.5     0.00002765     -6611.2141252109 -3.77E-04
    49 OT DIIS     0.80E-01   12.6     0.00002479     -6611.2141744835 -4.93E-05
    50 OT DIIS     0.80E-01   12.6     0.00002572     -6611.2141672546  7.23E-06
    51 OT DIIS     0.80E-01   12.7     0.00002524     -6611.2143985252 -2.31E-04
    52 OT DIIS     0.80E-01   12.6     0.00002311     -6611.2144387010 -4.02E-05
    53 OT DIIS     0.80E-01   12.5     0.00002390     -6611.2146788571 -2.40E-04
    54 OT SD       0.80E-01   12.6     0.00003072     -6611.2148035943 -1.25E-04
    55 OT DIIS     0.80E-01   12.6     0.00019516     -6611.2140838667  7.20E-04
    56 OT DIIS     0.80E-01   12.7     0.00002425     -6611.2150766567 -9.93E-04
    57 OT DIIS     0.80E-01   12.6     0.00002559     -6611.2151648588 -8.82E-05
    58 OT DIIS     0.80E-01   12.5     0.00002767     -6611.2152446082 -7.97E-05
    59 OT SD       0.80E-01   12.4     0.00002711     -6611.2153057185 -6.11E-05
    60 OT DIIS     0.80E-01   12.6     0.00015544     -6611.2149073061  3.98E-04
    61 OT SD       0.80E-01   12.5     0.00002664     -6611.2157148341 -8.08E-04
    62 OT DIIS     0.80E-01   13.0     0.00013426     -6611.2154203548  2.94E-04
    63 OT DIIS     0.80E-01   12.7     0.00002469     -6611.2158370424 -4.17E-04
    64 OT DIIS     0.80E-01   12.5     0.00002310     -6611.2159514086 -1.14E-04
    65 OT DIIS     0.80E-01   12.6     0.00002916     -6611.2165288134 -5.77E-04
    66 OT SD       0.80E-01   12.7     0.00005148     -6611.2181326076 -1.60E-03
    67 OT DIIS     0.80E-01   12.5     0.00039985     -6611.2142242399  3.91E-03
    68 OT DIIS     0.80E-01   12.6     0.00003123     -6611.2174704318 -3.25E-03
    69 OT DIIS     0.80E-01   12.7     0.00002979     -6611.2186625749 -1.19E-03
    70 OT DIIS     0.80E-01   12.7     0.00003778     -6611.2195175354 -8.55E-04
    71 OT SD       0.80E-01   12.7     0.00003261     -6611.2197019369 -1.84E-04
    72 OT DIIS     0.80E-01   12.5     0.00022407     -6611.2185051395  1.20E-03
    73 OT SD       0.80E-01   12.9     0.00003908     -6611.2199985912 -1.49E-03
    74 OT DIIS     0.80E-01   12.6     0.00028821     -6611.2179373129  2.06E-03
    75 OT DIIS     0.80E-01   12.8     0.00002151     -6611.2199282097 -1.99E-03
    76 OT SD       0.80E-01   12.7     0.00001775     -6611.2201432803 -2.15E-04
    77 OT DIIS     0.80E-01   12.6     0.00008613     -6611.2200420019  1.01E-04
    78 OT SD       0.80E-01   12.5     0.00001870     -6611.2203110813 -2.69E-04
    79 OT DIIS     0.80E-01   12.6     0.00009733     -6611.2201485752  1.63E-04
    80 OT DIIS     0.80E-01   12.7     0.00001565     -6611.2203402979 -1.92E-04
    81 OT DIIS     0.80E-01   12.8     0.00001489     -6611.2204273804 -8.71E-05
    82 OT DIIS     0.80E-01   12.6     0.00002005     -6611.2206392261 -2.12E-04
    83 OT SD       0.80E-01   12.7     0.00002250     -6611.2213709245 -7.32E-04
    84 OT DIIS     0.80E-01   12.6     0.00013917     -6611.2209278092  4.43E-04
    85 OT DIIS     0.80E-01   12.5     0.00002229     -6611.2210692658 -1.41E-04
    86 OT DIIS     0.80E-01   12.2     0.00002113     -6611.2216418464 -5.73E-04
    87 OT DIIS     0.80E-01   12.7     0.00002088     -6611.2223625559 -7.21E-04
    88 OT SD       0.80E-01   12.8     0.00002135     -6611.2226105960 -2.48E-04
    89 OT DIIS     0.80E-01   12.8     0.00014755     -6611.2221110521  5.00E-04
    90 OT SD       0.80E-01   12.8     0.00002444     -6611.2226671134 -5.56E-04
    91 OT DIIS     0.80E-01   12.8     0.00016669     -6611.2219758241  6.91E-04
    92 OT DIIS     0.80E-01   12.3     0.00001455     -6611.2227238861 -7.48E-04
    93 OT SD       0.80E-01   12.5     0.00001236     -6611.2228327359 -1.09E-04
    94 OT DIIS     0.80E-01   12.4     0.00006134     -6611.2227782602  5.45E-05
    95 OT SD       0.80E-01   12.3     0.00001555     -6611.2229701788 -1.92E-04
    96 OT DIIS     0.80E-01   12.5     0.00009591     -6611.2227711487  1.99E-04
    97 OT DIIS     0.80E-01   12.7     0.00001036     -6611.2229629029 -1.92E-04
    98 OT DIIS     0.80E-01   12.5     0.00001065     -6611.2230141694 -5.13E-05
    99 OT DIIS     0.80E-01   12.4     0.00001558     -6611.2232137562 -2.00E-04
   100 OT SD       0.80E-01   12.5     0.00001741     -6611.2237553651 -5.42E-04

  Leaving inner SCF loop after reaching   100 steps.


  Electronic density on regular grids:      -2432.0000000177       -0.0000000177
  Core density on regular grids:             2431.9999999988       -0.0000000012
  Total charge density on r-space grids:       -0.0000000188
  Total charge density g-space grids:          -0.0000000188

  Overlap energy of the core charge distribution:               6.92698813526687
  Self energy of the core charge distribution:             -16017.19408509233290
  Core Hamiltonian energy:                                   4931.40515480115937
  Hartree energy:                                            5900.03836382590907
  Exchange-correlation energy:                              -1429.57308917290106
  Dispersion energy:                                           -2.82708786219312

  Total energy:                                             -6611.22375536509207

  outer SCF iter =    2 RMS gradient =   0.17E-04 energy =      -6611.2237553651

  ----------------------------------- OT ---------------------------------------
  Minimizer      : DIIS                : direct inversion
                                         in the iterative subspace
                                         using   7 DIIS vectors
                                         safer DIIS on
  Preconditioner : FULL_SINGLE_INVERSE : inversion of 
                                         H + eS - 2*(Sc)(c^T*H*c+const)(Sc)^T
  Precond_solver : DEFAULT
  stepsize       :    0.08000000                  energy_gap     :    0.08000000
  eps_taylor     :   0.10000E-15                  max_taylor     :             4
  ----------------------------------- OT ---------------------------------------

  Step     Update method      Time    Convergence         Total energy    Change
  ------------------------------------------------------------------------------
     1 OT DIIS     0.80E-01   35.1     0.00011773     -6611.2234453445  3.10E-04
     2 OT DIIS     0.80E-01   11.8     0.00108576     -6611.1963624906  2.71E-02
     3 OT DIIS     0.80E-01   12.1     0.00008332     -6611.2235686678 -2.72E-02
     4 OT DIIS     0.80E-01   11.8     0.00003549     -6611.2238000469 -2.31E-04
     5 OT DIIS     0.80E-01   12.0     0.00001294     -6611.2238382521 -3.82E-05
     6 OT DIIS     0.80E-01   12.0     0.00000915     -6611.2238473636 -9.11E-06

  *** SCF run converged in     6 steps ***


  Electronic density on regular grids:      -2432.0000000177       -0.0000000177
  Core density on regular grids:             2431.9999999988       -0.0000000012
  Total charge density on r-space grids:       -0.0000000189
  Total charge density g-space grids:          -0.0000000189

  Overlap energy of the core charge distribution:               6.92698813526687
  Self energy of the core charge distribution:             -16017.19408509233290
  Core Hamiltonian energy:                                   4931.40968502341639
  Hartree energy:                                            5900.03480235181723
  Exchange-correlation energy:                              -1429.57414991958831
  Dispersion energy:                                           -2.82708786219312

  Total energy:                                             -6611.22384736361437

  outer SCF iter =    3 RMS gradient =   0.92E-05 energy =      -6611.2238473636
  outer SCF loop converged in   3 iterations or  206 steps


 ENERGY| Total FORCE_EVAL ( QS ) energy [hartree]          -6611.223856250162498

 MD| ***************************************************************************
 MD| Step number                                                               2
 MD| Time [fs]                                                          0.500000
 MD| Conserved quantity [hartree]                            -0.600728790366E+04
 MD| ---------------------------------------------------------------------------
 MD|                                          Instantaneous             Averages
 MD| CPU time per MD step [s]                   2668.908582          3790.290241
 MD| Energy drift per atom [K]           0.596320053934E+04   0.298160026967E+04
 MD| Potential energy [hartree]         -0.661122385625E+04  -0.654961443171E+04
 MD| Kinetic energy [hartree]            0.444884378522E+03   0.425563190803E+03
 MD| Temperature [K]                          242630.756451        232093.379510
 MD| Pressure [bar]                      3.926737746908E+06   4.097721166797E+06
 MD| ***************************************************************************
 MD| Estimated peak process memory after this step [MiB]                   18739

 Extrapolation method: ASPC

 Number of electrons:                                                       2432
 Number of occupied orbitals:                                               1216
 Number of molecular orbitals:                                              1216

 Number of orbital functions:                                               4983
 Number of independent orbital functions:                                   4983


 SCF WAVEFUNCTION OPTIMIZATION

  ----------------------------------- OT ---------------------------------------
  Minimizer      : DIIS                : direct inversion
                                         in the iterative subspace
                                         using   7 DIIS vectors
                                         safer DIIS on
  Preconditioner : FULL_SINGLE_INVERSE : inversion of 
                                         H + eS - 2*(Sc)(c^T*H*c+const)(Sc)^T
  Precond_solver : DEFAULT
  stepsize       :    0.08000000                  energy_gap     :    0.08000000
  eps_taylor     :   0.10000E-15                  max_taylor     :             4
  ----------------------------------- OT ---------------------------------------

  Step     Update method      Time    Convergence         Total energy    Change
  ------------------------------------------------------------------------------
     1 OT DIIS     0.80E-01   22.0     0.00524269     -6634.0727840844 -6.63E+03
     2 OT DIIS     0.80E-01   12.7     0.00422813     -6646.0795506678 -1.20E+01
     3 OT DIIS     0.80E-01   12.5     0.00159590     -6661.4386490931 -1.54E+01
     4 OT DIIS     0.80E-01   12.6     0.00141474     -6662.2478830948 -8.09E-01
     5 OT DIIS     0.80E-01   12.6     0.00085906     -6664.1342516273 -1.89E+00
     6 OT DIIS     0.80E-01   12.9     0.00064897     -6664.6294494604 -4.95E-01
     7 OT DIIS     0.80E-01   12.8     0.00043354     -6665.2967334083 -6.67E-01
     8 OT DIIS     0.80E-01   12.6     0.00037202     -6665.5408535418 -2.44E-01
     9 OT DIIS     0.80E-01   12.5     0.00025756     -6665.7692242453 -2.28E-01
    10 OT DIIS     0.80E-01   12.5     0.00020737     -6665.9145491464 -1.45E-01
    11 OT DIIS     0.80E-01   12.5     0.00017288     -6665.9807439667 -6.62E-02
    12 OT DIIS     0.80E-01   12.6     0.00015710     -6666.0540305871 -7.33E-02
    13 OT DIIS     0.80E-01   12.6     0.00012965     -6666.0975444754 -4.35E-02
    14 OT DIIS     0.80E-01   12.5     0.00011191     -6666.1400970618 -4.26E-02
    15 OT DIIS     0.80E-01   12.5     0.00010138     -6666.1837388109 -4.36E-02
    16 OT DIIS     0.80E-01   12.7     0.00008333     -6666.2144205486 -3.07E-02
    17 OT DIIS     0.80E-01   12.6     0.00007652     -6666.2442772125 -2.99E-02
[...]
    26 OT DIIS     0.80E-01   12.8     0.00003101     -6723.9830135579 -8.15E-05
    27 OT SD       0.80E-01   12.8     0.00002402     -6723.9837638763 -7.50E-04
    28 OT DIIS     0.80E-01   12.7     0.00010464     -6723.9835933727  1.71E-04
    29 OT DIIS     0.80E-01   12.7     0.00002571     -6723.9841706812 -5.77E-04
    30 OT DIIS     0.80E-01   12.8     0.00002425     -6723.9844817319 -3.11E-04
    31 OT DIIS     0.80E-01   12.6     0.00001870     -6723.9848775060 -3.96E-04
    32 OT DIIS     0.80E-01   12.6     0.00002101     -6723.9849424322 -6.49E-05
    33 OT DIIS     0.80E-01   12.6     0.00002558     -6723.9850068401 -6.44E-05
    34 OT SD       0.80E-01   12.6     0.00002188     -6723.9854213774 -4.15E-04
    35 OT DIIS     0.80E-01   12.6     0.00010559     -6723.9852209112  2.00E-04
    36 OT DIIS     0.80E-01   12.8     0.00002132     -6723.9857689463 -5.48E-04
    37 OT DIIS     0.80E-01   12.7     0.00001877     -6723.9863017420 -5.33E-04
    38 OT SD       0.80E-01   12.7     0.00002077     -6723.9864347483 -1.33E-04
    39 OT DIIS     0.80E-01   12.6     0.00011117     -6723.9862026471  2.32E-04
    40 OT DIIS     0.80E-01   12.6     0.00001738     -6723.9869616575 -7.59E-04
    41 OT SD       0.80E-01   12.8     0.00001604     -6723.9872199902 -2.58E-04
    42 OT DIIS     0.80E-01   12.5     0.00005565     -6723.9872264174 -6.43E-06
    43 OT DIIS     0.80E-01   12.6     0.00001613     -6723.9876495087 -4.23E-04
    44 OT DIIS     0.80E-01   12.6     0.00001507     -6723.9878824999 -2.33E-04
    45 OT DIIS     0.80E-01   12.8     0.00001615     -6723.9880501414 -1.68E-04
    46 OT DIIS     0.80E-01   12.7     0.00001518     -6723.9882767314 -2.27E-04
    47 OT DIIS     0.80E-01   12.8     0.00001549     -6723.9885493664 -2.73E-04
    48 OT DIIS     0.80E-01   13.1     0.00001422     -6723.9886501996 -1.01E-04
    49 OT DIIS     0.80E-01   12.5     0.00001441     -6723.9887825791 -1.32E-04
    50 OT DIIS     0.80E-01   12.3     0.00002124     -6723.9890413882 -2.59E-04
    51 OT SD       0.80E-01   12.6     0.00001432     -6723.9892443059 -2.03E-04
    52 OT DIIS     0.80E-01   12.7     0.00003937     -6723.9892599782 -1.57E-05
    53 OT DIIS     0.80E-01   13.1     0.00001575     -6723.9893988159 -1.39E-04
    54 OT DIIS     0.80E-01   12.6     0.00001335     -6723.9894394989 -4.07E-05
    55 OT SD       0.80E-01   13.0     0.00001671     -6723.9894734768 -3.40E-05
    56 OT DIIS     0.80E-01   12.7     0.00008960     -6723.9893086224  1.65E-04
    57 OT DIIS     0.80E-01   12.6     0.00001323     -6723.9896049157 -2.96E-04
    58 OT SD       0.80E-01   12.7     0.00001629     -6723.9897932045 -1.88E-04
    59 OT DIIS     0.80E-01   12.7     0.00009067     -6723.9896191981  1.74E-04
    60 OT DIIS     0.80E-01   12.6     0.00001490     -6723.9899902959 -3.71E-04
    61 OT DIIS     0.80E-01   12.6     0.00001613     -6723.9905853915 -5.95E-04
    62 OT SD       0.80E-01   12.8     0.00001324     -6723.9907263345 -1.41E-04
    63 OT DIIS     0.80E-01   12.7     0.00005768     -6723.9906604314  6.59E-05
    64 OT DIIS     0.80E-01   13.0     0.00001195     -6723.9909268225 -2.66E-04
    65 OT SD       0.80E-01   12.6     0.00001319     -6723.9911209084 -1.94E-04
    66 OT DIIS     0.80E-01   12.5     0.00005467     -6723.9910519924  6.89E-05
    67 OT DIIS     0.80E-01   12.8     0.00001291     -6723.9911500447 -9.81E-05
    68 OT DIIS     0.80E-01   12.5     0.00001134     -6723.9913761553 -2.26E-04
    69 OT SD       0.80E-01   12.9     0.00001181     -6723.9914686889 -9.25E-05
    70 OT DIIS     0.80E-01   12.9     0.00005837     -6723.9913944012  7.43E-05
    71 OT DIIS     0.80E-01   12.5     0.00000926     -6723.9915173582 -1.23E-04

  *** SCF run converged in    71 steps ***


  Electronic density on regular grids:      -2431.9999999981        0.0000000019
  Core density on regular grids:             2431.9999999988       -0.0000000012
  Total charge density on r-space grids:        0.0000000007
  Total charge density g-space grids:           0.0000000007

  Overlap energy of the core charge distribution:               1.23692317019970
  Self energy of the core charge distribution:             -16017.19408509233290
  Core Hamiltonian energy:                                   4801.62150150513571
  Hartree energy:                                            5905.91480842465444
  Exchange-correlation energy:                              -1412.79550403867052
  Dispersion energy:                                           -2.77516132716211

  Total energy:                                             -6723.99151735817486

  outer SCF iter =    2 RMS gradient =   0.93E-05 energy =      -6723.9915173582
  outer SCF loop converged in   2 iterations or  171 steps


 ENERGY| Total FORCE_EVAL ( QS ) energy [hartree]          -6723.991675095723622

 MD| ***************************************************************************
 MD| Step number                                                               7
 MD| Time [fs]                                                          1.750000
 MD| Conserved quantity [hartree]                            -0.596183518502E+04
 MD| ---------------------------------------------------------------------------
 MD|                                          Instantaneous             Averages
 MD| CPU time per MD step [s]                   2235.516299          2399.831676
 MD| Energy drift per atom [K]           0.430505809663E+05   0.218633199128E+05
 MD| Potential energy [hartree]         -0.672399167510E+04  -0.665782794463E+04
 MD| Kinetic energy [hartree]            0.204277098029E+03   0.335055426378E+03
 MD| Temperature [K]                          111408.512443        182732.313113
 MD| Pressure [bar]                      2.155056132662E+06   3.261255286210E+06
 MD| ***************************************************************************
 MD| Estimated peak process memory after this step [MiB]                   19181

 Extrapolation method: ASPC

 Number of electrons:                                                       2432
 Number of occupied orbitals:                                               1216
 Number of molecular orbitals:                                              1216

 Number of orbital functions:                                               4983
 Number of independent orbital functions:                                   4983


 SCF WAVEFUNCTION OPTIMIZATION

  ----------------------------------- OT ---------------------------------------
  Minimizer      : DIIS                : direct inversion
                                         in the iterative subspace
                                         using   7 DIIS vectors
                                         safer DIIS on
  Preconditioner : FULL_SINGLE_INVERSE : inversion of 
                                         H + eS - 2*(Sc)(c^T*H*c+const)(Sc)^T
  Precond_solver : DEFAULT
  stepsize       :    0.08000000                  energy_gap     :    0.08000000
  eps_taylor     :   0.10000E-15                  max_taylor     :             4
  ----------------------------------- OT ---------------------------------------

  Step     Update method      Time    Convergence         Total energy    Change
  ------------------------------------------------------------------------------
     1 OT DIIS     0.80E-01   20.3     0.00163267     -6738.3100900603 -6.74E+03
     2 OT DIIS     0.80E-01   12.6     0.00287904     -6738.2676586020  4.24E-02
     3 OT DIIS     0.80E-01   12.3     0.00182432     -6738.7072208720 -4.40E-01
     4 OT DIIS     0.80E-01   12.9     0.00150606     -6738.7944067405 -8.72E-02
     5 OT DIIS     0.80E-01   12.6     0.00093260     -6738.8780323776 -8.36E-02
     6 OT DIIS     0.80E-01   12.5     0.00071433     -6738.9332564079 -5.52E-02
     7 OT DIIS     0.80E-01   12.8     0.00052401     -6738.9788963709 -4.56E-02
     8 OT DIIS     0.80E-01   12.9     0.00040752     -6739.0077636025 -2.89E-02
     9 OT DIIS     0.80E-01   12.7     0.00042485     -6739.0218313214 -1.41E-02
    10 OT DIIS     0.80E-01   12.8     0.00034667     -6739.0320865506 -1.03E-02
    11 OT DIIS     0.80E-01   12.5     0.00028537     -6739.0419722544 -9.89E-03
    12 OT DIIS     0.80E-01   12.7     0.00033884     -6739.0467398703 -4.77E-03
    13 OT DIIS     0.80E-01   12.7     0.00029183     -6739.0505702586 -3.83E-03
    14 OT DIIS     0.80E-01   12.4     0.00022402     -6739.0555053669 -4.94E-03
    15 OT DIIS     0.80E-01   12.6     0.00019305     -6739.0590309505 -3.53E-03
    16 OT DIIS     0.80E-01   12.5     0.00016136     -6739.0617196384 -2.69E-03
    17 OT DIIS     0.80E-01   13.0     0.00016398     -6739.0661404869 -4.42E-03
    18 OT DIIS     0.80E-01   12.3     0.00016720     -6739.0677148130 -1.57E-03
    19 OT DIIS     0.80E-01   12.5     0.00014733     -6739.0701973577 -2.48E-03
    20 OT DIIS     0.80E-01   12.3     0.00016247     -6739.0730920713 -2.89E-03
    21 OT DIIS     0.80E-01   12.6     0.00017267     -6739.0747927841 -1.70E-03
    22 OT DIIS     0.80E-01   12.5     0.00014535     -6739.0772027805 -2.41E-03
    23 OT DIIS     0.80E-01   12.6     0.00013765     -6739.0790172268 -1.81E-03
    24 OT DIIS     0.80E-01   12.9     0.00012473     -6739.0801383577 -1.12E-03
    25 OT DIIS     0.80E-01   12.8     0.00011743     -6739.0829993175 -2.86E-03
    26 OT DIIS     0.80E-01   12.7     0.00012881     -6739.0837373815 -7.38E-04
    27 OT DIIS     0.80E-01   12.6     0.00010993     -6739.0846493034 -9.12E-04
    28 OT DIIS     0.80E-01   12.5     0.00011006     -6739.0863286699 -1.68E-03
    29 OT DIIS     0.80E-01   12.7     0.00011432     -6739.0873675263 -1.04E-03
    30 OT DIIS     0.80E-01   12.5     0.00010212     -6739.0885839271 -1.22E-03
    31 OT DIIS     0.80E-01   12.5     0.00009857     -6739.0896757907 -1.09E-03
    32 OT DIIS     0.80E-01   12.5     0.00009431     -6739.0904645290 -7.89E-04
    33 OT DIIS     0.80E-01   12.6     0.00008823     -6739.0922634689 -1.80E-03
    34 OT DIIS     0.80E-01   12.5     0.00010249     -6739.0931380250 -8.75E-04
    35 OT DIIS     0.80E-01   12.7     0.00009328     -6739.0934776979 -3.40E-04
    36 OT DIIS     0.80E-01   12.7     0.00009127     -6739.0946165913 -1.14E-03
    37 OT DIIS     0.80E-01   12.7     0.00009335     -6739.0953996377 -7.83E-04
    38 OT DIIS     0.80E-01   12.7     0.00008456     -6739.0960737447 -6.74E-04
    39 OT DIIS     0.80E-01   12.6     0.00007954     -6739.0967206217 -6.47E-04
    40 OT DIIS     0.80E-01   12.6     0.00007455     -6739.0972667834 -5.46E-04
    41 OT DIIS     0.80E-01   12.8     0.00006851     -6739.0982862893 -1.02E-03
    42 OT DIIS     0.80E-01   12.6     0.00007730     -6739.0991455775 -8.59E-04
    43 OT DIIS     0.80E-01   12.8     0.00007602     -6739.0993836755 -2.38E-04
    44 OT DIIS     0.80E-01   12.8     0.00007444     -6739.1001894464 -8.06E-04
    45 OT DIIS     0.80E-01   12.7     0.00007826     -6739.1008944802 -7.05E-04
    46 OT DIIS     0.80E-01   12.5     0.00007437     -6739.1013518983 -4.57E-04
    47 OT DIIS     0.80E-01   12.7     0.00007061     -6739.1017900559 -4.38E-04
    48 OT DIIS     0.80E-01   12.5     0.00006602     -6739.1022367414 -4.47E-04
    49 OT DIIS     0.80E-01   12.6     0.00005896     -6739.1027890976 -5.52E-04
    50 OT DIIS     0.80E-01   12.6     0.00006251     -6739.1034862441 -6.97E-04
    51 OT DIIS     0.80E-01   12.7     0.00006248     -6739.1036815595 -1.95E-04
    52 OT DIIS     0.80E-01   12.7     0.00006008     -6739.1042019685 -5.20E-04
    53 OT DIIS     0.80E-01   12.7     0.00006285     -6739.1047918719 -5.90E-04
    54 OT DIIS     0.80E-01   12.6     0.00006244     -6739.1051744954 -3.83E-04
    55 OT DIIS     0.80E-01   12.6     0.00006126     -6739.1055424267 -3.68E-04
    56 OT DIIS     0.80E-01   12.6     0.00005959     -6739.1060015232 -4.59E-04
    57 OT DIIS     0.80E-01   12.5     0.00005382     -6739.1062782621 -2.77E-04
    58 OT DIIS     0.80E-01   12.5     0.00005529     -6739.1068664709 -5.88E-04
    59 OT DIIS     0.80E-01   12.6     0.00005557     -6739.1070446135 -1.78E-04
    60 OT DIIS     0.80E-01   12.6     0.00005234     -6739.1073453266 -3.01E-04
    61 OT DIIS     0.80E-01   12.8     0.00005258     -6739.1077953086 -4.50E-04
    62 OT DIIS     0.80E-01   12.8     0.00005210     -6739.1080976504 -3.02E-04
    63 OT DIIS     0.80E-01   12.7     0.00005129     -6739.1084016066 -3.04E-04
    64 OT DIIS     0.80E-01   12.8     0.00005134     -6739.1088469351 -4.45E-04
    65 OT DIIS     0.80E-01   12.5     0.00004823     -6739.1090067515 -1.60E-04
    66 OT DIIS     0.80E-01   12.6     0.00004914     -6739.1095120100 -5.05E-04
    67 OT DIIS     0.80E-01   12.6     0.00005088     -6739.1097438803 -2.32E-04
    68 OT DIIS     0.80E-01   12.9     0.00004863     -6739.1099086242 -1.65E-04
    69 OT DIIS     0.80E-01   12.5     0.00004774     -6739.1102562875 -3.48E-04
    70 OT DIIS     0.80E-01   12.6     0.00004638     -6739.1104877854 -2.31E-04
    71 OT DIIS     0.80E-01   12.9     0.00004471     -6739.1107158764 -2.28E-04
    72 OT DIIS     0.80E-01   12.5     0.00004428     -6739.1110938340 -3.78E-04
    73 OT DIIS     0.80E-01   12.6     0.00004251     -6739.1111920706 -9.82E-05
    74 OT DIIS     0.80E-01   12.6     0.00004243     -6739.1115935454 -4.01E-04
    75 OT DIIS     0.80E-01   12.5     0.00004478     -6739.1118846788 -2.91E-04
    76 OT DIIS     0.80E-01   12.6     0.00004450     -6739.1120106598 -1.26E-04
    77 OT DIIS     0.80E-01   12.7     0.00004419     -6739.1122866190 -2.76E-04
    78 OT DIIS     0.80E-01   12.7     0.00004314     -6739.1124830924 -1.96E-04
    79 OT DIIS     0.80E-01   12.7     0.00004137     -6739.1126613340 -1.78E-04
    80 OT DIIS     0.80E-01   12.9     0.00004027     -6739.1129839458 -3.23E-04
    81 OT DIIS     0.80E-01   12.7     0.00003877     -6739.1130271105 -4.32E-05
    82 OT DIIS     0.80E-01   12.5     0.00003735     -6739.1133173619 -2.90E-04
    83 OT DIIS     0.80E-01   12.6     0.00003872     -6739.1136031373 -2.86E-04
    84 OT DIIS     0.80E-01   12.6     0.00003921     -6739.1137281652 -1.25E-04
    85 OT DIIS     0.80E-01   12.4     0.00003952     -6739.1139472536 -2.19E-04
    86 OT DIIS     0.80E-01   12.5     0.00003928     -6739.1141379883 -1.91E-04
    87 OT DIIS     0.80E-01   12.8     0.00003844     -6739.1143012070 -1.63E-04
    88 OT DIIS     0.80E-01   12.8     0.00003753     -6739.1145898165 -2.89E-04
    89 OT DIIS     0.80E-01   12.6     0.00003684     -6739.1146094693 -1.97E-05
    90 OT DIIS     0.80E-01   12.6     0.00003462     -6739.1148077089 -1.98E-04
    91 OT DIIS     0.80E-01   12.4     0.00003490     -6739.1150656482 -2.58E-04
    92 OT DIIS     0.80E-01   12.8     0.00003504     -6739.1151759591 -1.10E-04
    93 OT DIIS     0.80E-01   12.5     0.00003510     -6739.1153373737 -1.61E-04
    94 OT DIIS     0.80E-01   12.9     0.00003477     -6739.1155110957 -1.74E-04
    95 OT DIIS     0.80E-01   12.5     0.00003454     -6739.1156665653 -1.55E-04
    96 OT DIIS     0.80E-01   13.1     0.00003410     -6739.1159230661 -2.57E-04
    97 OT DIIS     0.80E-01   13.2     0.00003477     -6739.1159747561 -5.17E-05
    98 OT DIIS     0.80E-01   12.8     0.00003284     -6739.1161038238 -1.29E-04
    99 OT DIIS     0.80E-01   13.2     0.00003277     -6739.1163422190 -2.38E-04
   100 OT DIIS     0.80E-01   13.1     0.00003272     -6739.1164416815 -9.95E-05

  Leaving inner SCF loop after reaching   100 steps.


  Electronic density on regular grids:      -2431.9999999922        0.0000000078
  Core density on regular grids:             2431.9999999988       -0.0000000012
  Total charge density on r-space grids:        0.0000000066
  Total charge density g-space grids:           0.0000000066

  Overlap energy of the core charge distribution:               0.78857014162325
  Self energy of the core charge distribution:             -16017.19408509233290
  Core Hamiltonian energy:                                   4782.64941363823345
  Hartree energy:                                            5907.64471561622395
  Exchange-correlation energy:                              -1410.23603001129618
  Dispersion energy:                                           -2.76902597394124

  Total energy:                                             -6739.11644168148905

  outer SCF iter =    1 RMS gradient =   0.33E-04 energy =      -6739.1164416815

  ----------------------------------- OT ---------------------------------------
  Minimizer      : DIIS                : direct inversion
                                         in the iterative subspace
                                         using   7 DIIS vectors
                                         safer DIIS on
  Preconditioner : FULL_SINGLE_INVERSE : inversion of 
                                         H + eS - 2*(Sc)(c^T*H*c+const)(Sc)^T
  Precond_solver : DEFAULT
  stepsize       :    0.08000000                  energy_gap     :    0.08000000
  eps_taylor     :   0.10000E-15                  max_taylor     :             4
  ----------------------------------- OT ---------------------------------------

  Step     Update method      Time    Convergence         Total energy    Change
  ------------------------------------------------------------------------------
     1 OT DIIS     0.80E-01   36.3     0.00004289     -6739.1165506826 -1.09E-04
     2 OT DIIS     0.80E-01   12.2     0.00012906     -6739.1167961892 -2.46E-04
     3 OT DIIS     0.80E-01   12.1     0.00004004     -6739.1173499965 -5.54E-04
     4 OT DIIS     0.80E-01   12.2     0.00004303     -6739.1175953513 -2.45E-04
     5 OT DIIS     0.80E-01   12.2     0.00006374     -6739.1192604802 -1.67E-03
     6 OT DIIS     0.80E-01   12.2     0.00005547     -6739.1224353332 -3.17E-03
     7 OT DIIS     0.80E-01   12.2     0.00003343     -6739.1233188527 -8.84E-04
     8 OT DIIS     0.80E-01   13.1     0.00002963     -6739.1236463139 -3.27E-04
     9 OT DIIS     0.80E-01   12.7     0.00003485     -6739.1241001200 -4.54E-04
    10 OT DIIS     0.80E-01   12.5     0.00002740     -6739.1244444455 -3.44E-04
    11 OT DIIS     0.80E-01   12.8     0.00003218     -6739.1246055000 -1.61E-04
    12 OT DIIS     0.80E-01   12.7     0.00003061     -6739.1249536237 -3.48E-04
    13 OT DIIS     0.80E-01   12.8     0.00003166     -6739.1253642072 -4.11E-04
    14 OT SD       0.80E-01   12.7     0.00003635     -6739.1254921291 -1.28E-04
    15 OT DIIS     0.80E-01   12.5     0.00021955     -6739.1242757080  1.22E-03
    16 OT DIIS     0.80E-01   12.7     0.00002678     -6739.1256077029 -1.33E-03
    17 OT DIIS     0.80E-01   12.9     0.00002567     -6739.1258688402 -2.61E-04
    18 OT DIIS     0.80E-01   13.1     0.00002380     -6739.1258913957 -2.26E-05
    19 OT DIIS     0.80E-01   13.2     0.00002370     -6739.1259027708 -1.14E-05
    20 OT DIIS     0.80E-01   12.8     0.00002147     -6739.1259407172 -3.79E-05
    21 OT SD       0.80E-01   12.6     0.00002741     -6739.1265982837 -6.58E-04
    22 OT DIIS     0.80E-01   12.6     0.00013930     -6739.1261232889  4.75E-04
    23 OT DIIS     0.80E-01   12.6     0.00002626     -6739.1267566950 -6.33E-04
    24 OT DIIS     0.80E-01   12.8     0.00002815     -6739.1274142659 -6.58E-04
    25 OT DIIS     0.80E-01   12.8     0.00002110     -6739.1278182442 -4.04E-04
    26 OT DIIS     0.80E-01   13.0     0.00001482     -6739.1281498774 -3.32E-04
    27 OT DIIS     0.80E-01   12.9     0.00002317     -6739.1281503079 -4.30E-07
    28 OT SD       0.80E-01   13.1     0.00001883     -6739.1285515938 -4.01E-04
    29 OT DIIS     0.80E-01   12.7     0.00010516     -6739.1283069211  2.45E-04
    30 OT DIIS     0.80E-01   12.8     0.00001686     -6739.1287417515 -4.35E-04
    31 OT DIIS     0.80E-01   12.7     0.00001801     -6739.1290169031 -2.75E-04
    32 OT SD       0.80E-01   12.8     0.00001478     -6739.1293068445 -2.90E-04
