 DBCSR| CPU Multiplication driver                                           XSMM (U)
 DBCSR| Multrec recursion limit                                              512 (U)
 DBCSR| Multiplication stack size                                          30000 (D)
 DBCSR| Maximum elements for images                                    UNLIMITED (U)
 DBCSR| Multiplicative factor virtual images                                   1 (U)
 DBCSR| Use multiplication densification                                       F (D)
 DBCSR| Multiplication size stacks                                             3 (U)
 DBCSR| Use memory pool for CPU allocation                                     F (U)
 DBCSR| Number of 3D layers                                               SINGLE (U)
 DBCSR| Use MPI memory allocation                                              F (U)
 DBCSR| Use RMA algorithm                                                      F (U)
 DBCSR| Use Communication thread                                               T (U)
 DBCSR| Communication thread load                                             30 (D)
 DBCSR| MPI: My process id                                                     0
 DBCSR| MPI: Number of processes                                               1
 DBCSR| OMP: Current number of threads                                        16
 DBCSR| OMP: Max number of threads                                            16
 DBCSR| ACC: Number of devices/node                                            1
 DBCSR| ACC: Number of stack-buffers per thread                                8 (U)
 DBCSR| ACC: Avoid driver after busy                                           F (U)
 DBCSR| ACC: Process inhomogeneous stacks                                      T (U)
 DBCSR| ACC: Min. flop for processing                                          0 (U)
 DBCSR| ACC: Use G2G algorithm                                                 F (D)
 DBCSR| ACC: Min. flop for sorting                                          4000 (U)
 DBCSR| ACC: Number of binning bins                                         4096 (U)
 DBCSR| ACC: Size of binning bins                                             16 (U)
 DBCSR| ACC: GPU backend is enabled                                            T (D)
 DBCSR| Split modifier for TAS multiplication algorithm                  1.0E+00 (U)


  **** **** ******  **  PROGRAM STARTED AT               2025-10-08 08:48:19.073
 ***** ** ***  *** **   PROGRAM STARTED ON                          6377ac7c5298
 **    ****   ******    PROGRAM STARTED BY                             <unknown>
 ***** **    ** ** **   PROGRAM PROCESS ID                                   614
  **** **  *******  **  PROGRAM STARTED IN                             /mnt/cp2k

 CP2K| version string:                                       CP2K version 2025.1
 CP2K| source code revision number:                                  git:9635df4
 CP2K| cp2kflags: omp libint fftw3 libxc libgrpp pexsi elpa elpa_nvidia_gpu para
 CP2K|            llel scalapack cosma quip xsmm dbcsr_acc plumed2 spglib libdft
 CP2K|            td4 sirius libvori libbqb offload_cuda spla_gemm_offloading li
 CP2K|            ibvdwxc hdf5 trexio
 CP2K| is freely available from                            https://www.cp2k.org/
 CP2K| Program compiled at                          Tue Jan 14 21:07:27 UTC 2025
 CP2K| Program compiled on                                          eb3a76499499
 CP2K| Program compiled for                                           local_cuda
 CP2K| Data directory path                                        /opt/cp2k/data
 CP2K| Input file name                                           HAP_310_opt.inp

 GLOBAL| Force Environment number                                              1
 GLOBAL| Basis set file name                                        BASIS_MOLOPT
 GLOBAL| Potential file name                                      GTH_POTENTIALS
 GLOBAL| MM Potential file name                                     MM_POTENTIAL
 GLOBAL| Coordinate file name                                  HAP_310_clean.xyz
 GLOBAL| Method name                                                        CP2K
 GLOBAL| Project name                                                HAP_310_opt
 GLOBAL| Run type                                                        GEO_OPT
 GLOBAL| FFT library                                                       FFTW3
 GLOBAL| Diagonalization library                                            ELPA
 GLOBAL| DGEMM library                                                      SPLA
 GLOBAL| Minimum number of eigenvectors for ELPA usage                        16
 GLOBAL| Orthonormality check for eigenvectors                          DISABLED
 GLOBAL| Matrix multiplication library                                     COSMA
 GLOBAL| All-to-all communication in single precision                          F
 GLOBAL| FFTs using library dependent lengths                                  F
 GLOBAL| Grid backend                                                       AUTO
 GLOBAL| Global print level                                                  LOW
 GLOBAL| MPI I/O enabled                                                       T
 GLOBAL| Total number of message passing processes                             1
 GLOBAL| Number of threads for this process                                   16
 GLOBAL| This output is from process                                           0
 GLOBAL| OpenMP stack size per thread (OMP_STACKSIZE)                        16M
 GLOBAL| CPU model name                           Intel(R) Core(TM) Ultra 7 265K
 GLOBAL| CPUID                                                              1002
 GLOBAL| Compiled for CPUID                                                    0

 *** HINT in environment.F:928 :: The compiler target flags (generic) used ***
 *** to build this binary cannot exploit all extensions of this CPU model  ***
 *** (x86_avx2). Consider compiler target flags as part of FCFLAGS and     ***
 *** CFLAGS (ARCH file).                                                   ***


 MEMORY| system memory details [Kb]
 MEMORY|                        rank 0           min           max       average
 MEMORY| MemTotal             49330324      49330324      49330324      49330324
 MEMORY| MemFree              47028732      47028732      47028732      47028732
 MEMORY| Buffers                266864        266864        266864        266864
 MEMORY| Cached                1176920       1176920       1176920       1176920
 MEMORY| Slab                   119192        119192        119192        119192
 MEMORY| SReclaimable            47348         47348         47348         47348
 MEMORY| MemLikelyFree        48519864      48519864      48519864      48519864


 GENERATE|  Preliminary Number of Bonds generated:                             0
 GENERATE|  Achieved consistency in connectivity generation.

 *******************************************************************************
 *******************************************************************************
 **                                                                           **
 **     #####                         ##              ##                      **
 **    ##   ##            ##          ##              ##                      **
 **   ##     ##                       ##            ######                    **
 **   ##     ##  ##   ##  ##   #####  ##  ##   ####   ##    #####    #####    **
 **   ##     ##  ##   ##  ##  ##      ## ##   ##      ##   ##   ##  ##   ##   **
 **   ##  ## ##  ##   ##  ##  ##      ####     ###    ##   ######   ######    **
 **    ##  ###   ##   ##  ##  ##      ## ##      ##   ##   ##       ##        **
 **     #######   #####   ##   #####  ##  ##  ####    ##    #####   ##        **
 **           ##                                                    ##        **
 **                                                                           **
 **                                                ... make the atoms dance   **
 **                                                                           **
 **            Copyright (C) by CP2K developers group (2000-2025)             **
 **                      J. Chem. Phys. 152, 194103 (2020)                    **
 **                                                                           **
 *******************************************************************************


 TOTAL NUMBERS AND MAXIMUM NUMBERS

  Total number of            - Atomic kinds:                                   5
                             - Atoms:                                        387
                             - Shell sets:                                   387
                             - Shells:                                      2015
                             - Primitive Cartesian functions:               2031
                             - Cartesian basis functions:                   5338
                             - Spherical basis functions:                   4983

  Maximum angular momentum of- Orbital basis functions:                        2
                             - Local part of the GTH pseudopotential:          2
                             - Non-local part of the GTH pseudopotential:      3


 SCF PARAMETERS         Density guess:                                    ATOMIC
                        --------------------------------------------------------
                        max_scf:                                             100
                        max_scf_history:                                       0
                        max_diis:                                              4
                        --------------------------------------------------------
                        eps_scf:                                        1.00E-06
                        eps_scf_history:                                0.00E+00
                        eps_diis:                                       1.00E-01
                        eps_eigval:                                     1.00E-05
                        --------------------------------------------------------
                        level_shift [a.u.]:                             0.000000
                        --------------------------------------------------------
                        Outer loop SCF in use 
                        No variables optimised in outer loop
                        eps_scf                                         1.00E-06
                        max_scf                                               50
                        No outer loop optimization
                        step_size                                       5.00E-01

 *******************************************************************************
 ***                     STARTING GEOMETRY OPTIMIZATION                      ***
 ***                                 L-BFGS                                  ***
 *******************************************************************************

 --------------------------
 OPTIMIZATION STEP:      1
 --------------------------

 Number of electrons:                                                       2432
 Number of occupied orbitals:                                               1216
 Number of molecular orbitals:                                              1216

 Number of orbital functions:                                               4983
 Number of independent orbital functions:                                   4983

 Extrapolation method: initial_guess


 SCF WAVEFUNCTION OPTIMIZATION

  ----------------------------------- OT ---------------------------------------
  Minimizer      : DIIS                : direct inversion
                                         in the iterative subspace
                                         using   7 DIIS vectors
                                         safer DIIS on
  Preconditioner : FULL_SINGLE_INVERSE : inversion of 
                                         H + eS - 2*(Sc)(c^T*H*c+const)(Sc)^T
  Precond_solver : DEFAULT
  stepsize       :    0.08000000                  energy_gap     :    0.08000000
  eps_taylor     :   0.10000E-15                  max_taylor     :             4
  ----------------------------------- OT ---------------------------------------

  Step     Update method      Time    Convergence         Total energy    Change
  ------------------------------------------------------------------------------
     1 OT DIIS     0.80E-01   30.0     0.01642303     -6685.7350259814 -6.69E+03
     2 OT DIIS     0.80E-01   12.6     0.01073061     -6760.7329382120 -7.50E+01
     3 OT DIIS     0.80E-01   12.4     0.01129330     -6785.6108078744 -2.49E+01
     4 OT DIIS     0.80E-01   12.6     0.00695880     -6803.7652389219 -1.82E+01
     5 OT DIIS     0.80E-01   12.5     0.00421454     -6833.0338531475 -2.93E+01
     6 OT DIIS     0.80E-01   13.2     0.00324480     -6847.6949354069 -1.47E+01
     7 OT DIIS     0.80E-01   13.7     0.00264831     -6856.6743563671 -8.98E+00
     8 OT DIIS     0.80E-01   12.9     0.00220396     -6863.3925830640 -6.72E+00
     9 OT DIIS     0.80E-01   13.0     0.00179060     -6868.5159979619 -5.12E+00
    10 OT DIIS     0.80E-01   13.1     0.00139538     -6873.0137137348 -4.50E+00
    11 OT DIIS     0.80E-01   13.3     0.00109179     -6876.1502049641 -3.14E+00
    12 OT DIIS     0.80E-01   13.1     0.00087433     -6878.0908958064 -1.94E+00
    13 OT DIIS     0.80E-01   13.0     0.00073173     -6879.2365913777 -1.15E+00
    14 OT DIIS     0.80E-01   13.2     0.00061681     -6880.1192331805 -8.83E-01
    15 OT DIIS     0.80E-01   13.2     0.00050677     -6880.8733709101 -7.54E-01
    16 OT DIIS     0.80E-01   13.3     0.00042156     -6881.3929858745 -5.20E-01
    17 OT DIIS     0.80E-01   13.0     0.00035585     -6881.7900353198 -3.97E-01
    18 OT DIIS     0.80E-01   13.1     0.00031565     -6882.0352976650 -2.45E-01
    19 OT DIIS     0.80E-01   13.0     0.00027731     -6882.2566368994 -2.21E-01
    20 OT DIIS     0.80E-01   12.5     0.00023609     -6882.4726286603 -2.16E-01
    21 OT DIIS     0.80E-01   13.3     0.00020970     -6882.6034374002 -1.31E-01
    22 OT DIIS     0.80E-01   12.9     0.00018734     -6882.7116327846 -1.08E-01
    23 OT DIIS     0.80E-01   12.9     0.00016675     -6882.8067725785 -9.51E-02
    24 OT DIIS     0.80E-01   12.7     0.00015012     -6882.8859198173 -7.91E-02
    25 OT DIIS     0.80E-01   13.1     0.00013566     -6882.9523200730 -6.64E-02
    26 OT DIIS     0.80E-01   12.9     0.00012371     -6883.0086077885 -5.63E-02
    27 OT DIIS     0.80E-01   12.9     0.00011384     -6883.0567322694 -4.81E-02
    28 OT DIIS     0.80E-01   12.9     0.00010480     -6883.0999811200 -4.32E-02
    29 OT DIIS     0.80E-01   13.0     0.00009789     -6883.1344830116 -3.45E-02
    30 OT DIIS     0.80E-01   13.1     0.00009133     -6883.1663902959 -3.19E-02
    31 OT DIIS     0.80E-01   13.2     0.00008557     -6883.1969118755 -3.05E-02
    32 OT DIIS     0.80E-01   13.1     0.00008047     -6883.2209920024 -2.41E-02
    33 OT DIIS     0.80E-01   12.9     0.00007477     -6883.2495073165 -2.85E-02
    34 OT DIIS     0.80E-01   13.1     0.00006975     -6883.2740281358 -2.45E-02
    35 OT DIIS     0.80E-01   12.9     0.00006578     -6883.2934927642 -1.95E-02
    36 OT DIIS     0.80E-01   13.2     0.00006192     -6883.3127673348 -1.93E-02
    37 OT DIIS     0.80E-01   13.0     0.00005840     -6883.3297517650 -1.70E-02
    38 OT DIIS     0.80E-01   13.4     0.00005564     -6883.3452843101 -1.55E-02
    39 OT DIIS     0.80E-01   13.1     0.00005319     -6883.3573105542 -1.20E-02
    40 OT DIIS     0.80E-01   12.8     0.00005043     -6883.3722526606 -1.49E-02
    41 OT DIIS     0.80E-01   13.1     0.00004808     -6883.3858407336 -1.36E-02
    42 OT DIIS     0.80E-01   13.3     0.00004616     -6883.3959523590 -1.01E-02
    43 OT DIIS     0.80E-01   13.2     0.00004403     -6883.4070156158 -1.11E-02
    44 OT DIIS     0.80E-01   13.0     0.00004182     -6883.4191981908 -1.22E-02
    45 OT DIIS     0.80E-01   12.7     0.00004010     -6883.4290174379 -9.82E-03
    46 OT DIIS     0.80E-01   13.1     0.00003864     -6883.4360048111 -6.99E-03
    47 OT DIIS     0.80E-01   12.8     0.00003689     -6883.4464504344 -1.04E-02
    48 OT DIIS     0.80E-01   13.1     0.00003555     -6883.4550655656 -8.62E-03
    49 OT DIIS     0.80E-01   12.9     0.00003459     -6883.4601116588 -5.05E-03
    50 OT DIIS     0.80E-01   13.3     0.00003287     -6883.4692057138 -9.09E-03
    51 OT DIIS     0.80E-01   13.2     0.00003150     -6883.4772651537 -8.06E-03
    52 OT DIIS     0.80E-01   13.3     0.00003050     -6883.4838002106 -6.54E-03
    53 OT DIIS     0.80E-01   13.0     0.00002952     -6883.4886404157 -4.84E-03
    54 OT DIIS     0.80E-01   13.2     0.00002832     -6883.4959555163 -7.32E-03
    55 OT DIIS     0.80E-01   13.0     0.00002744     -6883.5021787112 -6.22E-03
    56 OT DIIS     0.80E-01   13.0     0.00002682     -6883.5054611346 -3.28E-03
    57 OT DIIS     0.80E-01   13.1     0.00002581     -6883.5111004302 -5.64E-03
    58 OT DIIS     0.80E-01   12.9     0.00002523     -6883.5143010495 -3.20E-03
    59 OT DIIS     0.80E-01   13.0     0.00002444     -6883.5188488274 -4.55E-03
    60 OT DIIS     0.80E-01   12.8     0.00002391     -6883.5217221637 -2.87E-03
    61 OT DIIS     0.80E-01   12.9     0.00002331     -6883.5253438857 -3.62E-03
    62 OT DIIS     0.80E-01   13.0     0.00002300     -6883.5280081153 -2.66E-03
    63 OT DIIS     0.80E-01   13.2     0.00002266     -6883.5298840122 -1.88E-03
    64 OT DIIS     0.80E-01   13.2     0.00002217     -6883.5337568327 -3.87E-03
    65 OT DIIS     0.80E-01   13.1     0.00002140     -6883.5381386748 -4.38E-03
    66 OT DIIS     0.80E-01   13.2     0.00002100     -6883.5411878702 -3.05E-03
    67 OT DIIS     0.80E-01   12.9     0.00002071     -6883.5427846106 -1.60E-03
    68 OT DIIS     0.80E-01   13.5     0.00002032     -6883.5451328029 -2.35E-03
    69 OT DIIS     0.80E-01   13.2     0.00002004     -6883.5478473654 -2.71E-03
    70 OT DIIS     0.80E-01   13.0     0.00001972     -6883.5497709737 -1.92E-03
    71 OT DIIS     0.80E-01   13.1     0.00001924     -6883.5542945498 -4.52E-03
    72 OT DIIS     0.80E-01   12.7     0.00001875     -6883.5567891603 -2.49E-03
    73 OT DIIS     0.80E-01   13.4     0.00001831     -6883.5604953394 -3.71E-03
    74 OT DIIS     0.80E-01   13.0     0.00001799     -6883.5650568018 -4.56E-03
    75 OT DIIS     0.80E-01   13.1     0.00001823     -6883.5661654595 -1.11E-03
    76 OT DIIS     0.80E-01   12.7     0.00001781     -6883.5705773003 -4.41E-03
    77 OT DIIS     0.80E-01   13.2     0.00002002     -6883.5728581647 -2.28E-03
    78 OT DIIS     0.80E-01   13.5     0.00001646     -6883.5771604991 -4.30E-03
    79 OT DIIS     0.80E-01   13.1     0.00001675     -6883.5779715557 -8.11E-04
    80 OT DIIS     0.80E-01   13.0     0.00001681     -6883.5806299567 -2.66E-03
    81 OT DIIS     0.80E-01   13.0     0.00001610     -6883.5817416912 -1.11E-03
    82 OT DIIS     0.80E-01   13.1     0.00001791     -6883.5838030249 -2.06E-03
    83 OT DIIS     0.80E-01   12.9     0.00001527     -6883.5879392920 -4.14E-03
    84 OT SD       0.80E-01   12.9     0.00001657     -6883.5883595350 -4.20E-04
    85 OT DIIS     0.80E-01   13.0     0.00001551     -6883.5884870072 -1.27E-04
    86 OT SD       0.80E-01   13.0     0.00001481     -6883.5886586950 -1.72E-04
    87 OT DIIS     0.80E-01   13.1     0.00001462     -6883.5887641887 -1.05E-04
    88 OT DIIS     0.80E-01   12.9     0.00001389     -6883.5917360061 -2.97E-03
    89 OT DIIS     0.80E-01   13.1     0.00001363     -6883.5931042666 -1.37E-03
    90 OT DIIS     0.80E-01   13.1     0.00001319     -6883.5942084861 -1.10E-03
    91 OT DIIS     0.80E-01   13.1     0.00001302     -6883.5975347459 -3.33E-03
    92 OT DIIS     0.80E-01   13.5     0.00001269     -6883.5977205618 -1.86E-04
    93 OT DIIS     0.80E-01   13.2     0.00001247     -6883.5998338269 -2.11E-03
    94 OT DIIS     0.80E-01   13.5     0.00001244     -6883.6010616682 -1.23E-03
    95 OT DIIS     0.80E-01   13.3     0.00001168     -6883.6025720683 -1.51E-03
    96 OT DIIS     0.80E-01   13.1     0.00001254     -6883.6031835002 -6.11E-04
    97 OT DIIS     0.80E-01   12.9     0.00001115     -6883.6045603579 -1.38E-03
    98 OT DIIS     0.80E-01   13.0     0.00001096     -6883.6058447564 -1.28E-03
    99 OT DIIS     0.80E-01   13.1     0.00001064     -6883.6075275607 -1.68E-03
   100 OT DIIS     0.80E-01   13.3     0.00001023     -6883.6092316766 -1.70E-03

  Leaving inner SCF loop after reaching   100 steps.


  Electronic density on regular grids:      -2432.0000000066       -0.0000000066
  Core density on regular grids:             2431.9999999988       -0.0000000012
  Total charge density on r-space grids:       -0.0000000078
  Total charge density g-space grids:          -0.0000000078

  Overlap energy of the core charge distribution:               0.03711639588124
  Self energy of the core charge distribution:             -16017.19408509233290
  Core Hamiltonian energy:                                   4349.62311973571286
  Hartree energy:                                            6116.83464234026997
  Exchange-correlation energy:                              -1330.97302128315823
  Dispersion energy:                                           -1.93700377297250

  Total energy:                                             -6883.60923167659894

  outer SCF iter =    1 RMS gradient =   0.10E-04 energy =      -6883.6092316766

  ----------------------------------- OT ---------------------------------------
  Minimizer      : DIIS                : direct inversion
                                         in the iterative subspace
                                         using   7 DIIS vectors
                                         safer DIIS on
  Preconditioner : FULL_SINGLE_INVERSE : inversion of 
                                         H + eS - 2*(Sc)(c^T*H*c+const)(Sc)^T
  Precond_solver : DEFAULT
  stepsize       :    0.08000000                  energy_gap     :    0.08000000
  eps_taylor     :   0.10000E-15                  max_taylor     :             4
  ----------------------------------- OT ---------------------------------------

  Step     Update method      Time    Convergence         Total energy    Change
  ------------------------------------------------------------------------------
     1 OT DIIS     0.80E-01   36.3     0.00011316     -6883.6092766637 -4.50E-05
     2 OT DIIS     0.80E-01   12.4     0.00017887     -6883.6122001855 -2.92E-03
     3 OT DIIS     0.80E-01   12.4     0.00014399     -6883.6136830741 -1.48E-03
     4 OT DIIS     0.80E-01   12.5     0.00011117     -6883.6151789285 -1.50E-03
     5 OT DIIS     0.80E-01   12.6     0.00010601     -6883.6172192126 -2.04E-03
     6 OT DIIS     0.80E-01   12.8     0.00007572     -6883.6185813953 -1.36E-03
     7 OT DIIS     0.80E-01   12.7     0.00007388     -6883.6202568637 -1.68E-03
     8 OT DIIS     0.80E-01   12.8     0.00006654     -6883.6218088745 -1.55E-03
     9 OT DIIS     0.80E-01   12.4     0.00005698     -6883.6232611954 -1.45E-03
    10 OT DIIS     0.80E-01   13.2     0.00006097     -6883.6243994594 -1.14E-03
    11 OT DIIS     0.80E-01   13.0     0.00005455     -6883.6259700243 -1.57E-03
    12 OT DIIS     0.80E-01   12.9     0.00005660     -6883.6272563501 -1.29E-03
    13 OT DIIS     0.80E-01   13.1     0.00006037     -6883.6281288277 -8.72E-04
    14 OT DIIS     0.80E-01   13.0     0.00006105     -6883.6292991875 -1.17E-03
    15 OT DIIS     0.80E-01   13.0     0.00005206     -6883.6304432889 -1.14E-03
    16 OT DIIS     0.80E-01   13.2     0.00005980     -6883.6307485336 -3.05E-04
    17 OT DIIS     0.80E-01   13.0     0.00005211     -6883.6308775692 -1.29E-04
    18 OT SD       0.80E-01   12.8     0.00005001     -6883.6321123117 -1.23E-03
    19 OT DIIS     0.80E-01   13.2     0.00022042     -6883.6308616008  1.25E-03
    20 OT DIIS     0.80E-01   12.9     0.00005354     -6883.6329967835 -2.14E-03
    21 OT DIIS     0.80E-01   13.4     0.00004774     -6883.6331755516 -1.79E-04
    22 OT DIIS     0.80E-01   13.1     0.00004436     -6883.6336805944 -5.05E-04
    23 OT DIIS     0.80E-01   13.3     0.00003761     -6883.6337511152 -7.05E-05
    24 OT DIIS     0.80E-01   12.9     0.00003842     -6883.6339206243 -1.70E-04
    25 OT SD       0.80E-01   12.8     0.00004654     -6883.6357093938 -1.79E-03
    26 OT DIIS     0.80E-01   13.0     0.00019379     -6883.6345111332  1.20E-03
    27 OT DIIS     0.80E-01   13.0     0.00003974     -6883.6361431952 -1.63E-03
    28 OT DIIS     0.80E-01   13.1     0.00004135     -6883.6365933683 -4.50E-04
    29 OT DIIS     0.80E-01   13.3     0.00002588     -6883.6378103245 -1.22E-03
    30 OT SD       0.80E-01   13.2     0.00002141     -6883.6378186604 -8.34E-06
    31 OT DIIS     0.80E-01   13.0     0.00007497     -6883.6377428080  7.59E-05
    32 OT SD       0.80E-01   13.4     0.00001977     -6883.6384242475 -6.81E-04
    33 OT DIIS     0.80E-01   13.0     0.00008182     -6883.6382952026  1.29E-04
    34 OT DIIS     0.80E-01   12.8     0.00001729     -6883.6387873383 -4.92E-04
    35 OT DIIS     0.80E-01   13.1     0.00001597     -6883.6389682941 -1.81E-04
    36 OT DIIS     0.80E-01   13.2     0.00001416     -6883.6390959662 -1.28E-04
    37 OT DIIS     0.80E-01   12.8     0.00001314     -6883.6392076940 -1.12E-04
    38 OT DIIS     0.80E-01   13.3     0.00001351     -6883.6393297007 -1.22E-04
    39 OT DIIS     0.80E-01   13.2     0.00001575     -6883.6393438891 -1.42E-05
    40 OT DIIS     0.80E-01   12.9     0.00001270     -6883.6394320424 -8.82E-05
    41 OT DIIS     0.80E-01   13.1     0.00001213     -6883.6396500499 -2.18E-04
    42 OT DIIS     0.80E-01   13.1     0.00001297     -6883.6397419156 -9.19E-05
    43 OT SD       0.80E-01   13.3     0.00001291     -6883.6398775045 -1.36E-04
    44 OT DIIS     0.80E-01   13.1     0.00004999     -6883.6398371776  4.03E-05
    45 OT DIIS     0.80E-01   13.1     0.00001181     -6883.6399687408 -1.32E-04
    46 OT DIIS     0.80E-01   13.2     0.00001116     -6883.6400230246 -5.43E-05
    47 OT DIIS     0.80E-01   13.1     0.00001004     -6883.6401590267 -1.36E-04
    48 OT DIIS     0.80E-01   12.8     0.00000977     -6883.6402465116 -8.75E-05
    49 OT DIIS     0.80E-01   12.7     0.00001003     -6883.6402829120 -3.64E-05
    50 OT SD       0.80E-01   12.9     0.00000981     -6883.6403801399 -9.72E-05
    51 OT DIIS     0.80E-01   13.0     0.00003585     -6883.6403687106  1.14E-05
    52 OT DIIS     0.80E-01   13.0     0.00000865     -6883.6404913825 -1.23E-04
    53 OT DIIS     0.80E-01   13.6     0.00000846     -6883.6405475701 -5.62E-05
    54 OT DIIS     0.80E-01   12.4     0.00000806     -6883.6406117299 -6.42E-05
    55 OT DIIS     0.80E-01   12.9     0.00000943     -6883.6406412690 -2.95E-05
    56 OT DIIS     0.80E-01   12.7     0.00000848     -6883.6406974610 -5.62E-05
    57 OT DIIS     0.80E-01   13.0     0.00000809     -6883.6407123526 -1.49E-05
    58 OT DIIS     0.80E-01   12.7     0.00000868     -6883.6407261268 -1.38E-05
    59 OT DIIS     0.80E-01   13.2     0.00000729     -6883.6408646872 -1.39E-04
    60 OT SD       0.80E-01   12.8     0.00000839     -6883.6408978700 -3.32E-05
    61 OT DIIS     0.80E-01   13.1     0.00002982     -6883.6408863820  1.15E-05
    62 OT DIIS     0.80E-01   12.9     0.00000840     -6883.6409825116 -9.61E-05
    63 OT SD       0.80E-01   12.9     0.00000768     -6883.6410243762 -4.19E-05
    64 OT DIIS     0.80E-01   13.3     0.00002588     -6883.6410180289  6.35E-06
    65 OT DIIS     0.80E-01   13.3     0.00000814     -6883.6411308601 -1.13E-04
    66 OT SD       0.80E-01   13.0     0.00000749     -6883.6411614244 -3.06E-05
    67 OT DIIS     0.80E-01   13.1     0.00002656     -6883.6411509003  1.05E-05
    68 OT DIIS     0.80E-01   13.3     0.00000699     -6883.6412492888 -9.84E-05
    69 OT DIIS     0.80E-01   13.2     0.00000750     -6883.6413226396 -7.34E-05
    70 OT SD       0.80E-01   13.0     0.00000609     -6883.6413487117 -2.61E-05
    71 OT DIIS     0.80E-01   13.2     0.00001784     -6883.6413508481 -2.14E-06
    72 OT DIIS     0.80E-01   13.3     0.00000579     -6883.6413779826 -2.71E-05
    73 OT SD       0.80E-01   13.0     0.00000540     -6883.6414225340 -4.46E-05
    74 OT DIIS     0.80E-01   13.0     0.00001327     -6883.6414287507 -6.22E-06
    75 OT DIIS     0.80E-01   13.1     0.00000516     -6883.6415165234 -8.78E-05
    76 OT DIIS     0.80E-01   12.9     0.00000534     -6883.6415566044 -4.01E-05
    77 OT DIIS     0.80E-01   12.8     0.00000510     -6883.6415859614 -2.94E-05
    78 OT DIIS     0.80E-01   13.4     0.00000591     -6883.6415906263 -4.66E-06
    79 OT SD       0.80E-01   13.3     0.00000663     -6883.6416238762 -3.32E-05
    80 OT DIIS     0.80E-01   13.3     0.00003023     -6883.6416036731  2.02E-05
    81 OT DIIS     0.80E-01   13.3     0.00000490     -6883.6416727587 -6.91E-05
    82 OT DIIS     0.80E-01   13.2     0.00000563     -6883.6416911369 -1.84E-05
    83 OT DIIS     0.80E-01   13.1     0.00000555     -6883.6417090433 -1.79E-05
    84 OT SD       0.80E-01   13.0     0.00000634     -6883.6417363277 -2.73E-05
    85 OT DIIS     0.80E-01   13.0     0.00002891     -6883.6417168730  1.95E-05
    86 OT SD       0.80E-01   13.2     0.00000498     -6883.6418431451 -1.26E-04
    87 OT DIIS     0.80E-01   13.1     0.00001456     -6883.6418432959 -1.51E-07
    88 OT SD       0.80E-01   12.9     0.00000485     -6883.6418486879 -5.39E-06
    89 OT DIIS     0.80E-01   12.9     0.00001695     -6883.6418465608  2.13E-06
    90 OT DIIS     0.80E-01   12.9     0.00000450     -6883.6419099250 -6.34E-05
    91 OT SD       0.80E-01   12.8     0.00000420     -6883.6419485076 -3.86E-05
    92 OT DIIS     0.80E-01   13.2     0.00000862     -6883.6419530908 -4.58E-06
    93 OT SD       0.80E-01   13.3     0.00000412     -6883.6419731709 -2.01E-05
    94 OT DIIS     0.80E-01   13.2     0.00000999     -6883.6419765788 -3.41E-06
    95 OT DIIS     0.80E-01   13.1     0.00000412     -6883.6419858377 -9.26E-06
    96 OT DIIS     0.80E-01   13.3     0.00000374     -6883.6419965933 -1.08E-05
    97 OT DIIS     0.80E-01   13.2     0.00000415     -6883.6420277119 -3.11E-05
    98 OT SD       0.80E-01   12.9     0.00000433     -6883.6420943772 -6.67E-05
    99 OT DIIS     0.80E-01   12.9     0.00001487     -6883.6420926844  1.69E-06
   100 OT DIIS     0.80E-01   13.3     0.00000406     -6883.6421174432 -2.48E-05

  Leaving inner SCF loop after reaching   100 steps.


  Electronic density on regular grids:      -2432.0000000065       -0.0000000065
  Core density on regular grids:             2431.9999999988       -0.0000000012
  Total charge density on r-space grids:       -0.0000000077
  Total charge density g-space grids:          -0.0000000077

  Overlap energy of the core charge distribution:               0.03711639588124
  Self energy of the core charge distribution:             -16017.19408509233290
  Core Hamiltonian energy:                                   4349.56380255270142
  Hartree energy:                                            6116.86776247750367
  Exchange-correlation energy:                              -1330.97971000397297
  Dispersion energy:                                           -1.93700377297250

  Total energy:                                             -6883.64211744319164

  outer SCF iter =    2 RMS gradient =   0.41E-05 energy =      -6883.6421174432

  ----------------------------------- OT ---------------------------------------
  Minimizer      : DIIS                : direct inversion
                                         in the iterative subspace
                                         using   7 DIIS vectors
                                         safer DIIS on
  Preconditioner : FULL_SINGLE_INVERSE : inversion of 
                                         H + eS - 2*(Sc)(c^T*H*c+const)(Sc)^T
  Precond_solver : DEFAULT
  stepsize       :    0.08000000                  energy_gap     :    0.08000000
  eps_taylor     :   0.10000E-15                  max_taylor     :             4
  ----------------------------------- OT ---------------------------------------

  Step     Update method      Time    Convergence         Total energy    Change
  ------------------------------------------------------------------------------
     1 OT DIIS     0.80E-01   35.1     0.00000405     -6883.6421940807 -7.66E-05
     2 OT DIIS     0.80E-01   12.4     0.00001192     -6883.6421953722 -1.29E-06
     3 OT DIIS     0.80E-01   12.1     0.00000399     -6883.6422006258 -5.25E-06
     4 OT DIIS     0.80E-01   12.6     0.00000351     -6883.6422024293 -1.80E-06
     5 OT DIIS     0.80E-01   12.4     0.00000344     -6883.6422044727 -2.04E-06
     6 OT DIIS     0.80E-01   12.2     0.00000345     -6883.6422096291 -5.16E-06
     7 OT DIIS     0.80E-01   12.9     0.00000346     -6883.6422223296 -1.27E-05
     8 OT DIIS     0.80E-01   12.6     0.00000355     -6883.6422477007 -2.54E-05
     9 OT DIIS     0.80E-01   12.5     0.00000358     -6883.6422484185 -7.18E-07
    10 OT DIIS     0.80E-01   12.5     0.00000361     -6883.6422952350 -4.68E-05
    11 OT SD       0.80E-01   12.7     0.00000351     -6883.6423229216 -2.77E-05
    12 OT DIIS     0.80E-01   12.5     0.00000885     -6883.6423256343 -2.71E-06
    13 OT DIIS     0.80E-01   12.2     0.00000341     -6883.6423366561 -1.10E-05
    14 OT DIIS     0.80E-01   12.6     0.00000337     -6883.6423540718 -1.74E-05
    15 OT DIIS     0.80E-01   12.5     0.00000328     -6883.6423623307 -8.26E-06
    16 OT DIIS     0.80E-01   12.5     0.00000329     -6883.6423661417 -3.81E-06
    17 OT DIIS     0.80E-01   12.2     0.00000328     -6883.6423878026 -2.17E-05
    18 OT SD       0.80E-01   12.2     0.00000339     -6883.6424622081 -7.44E-05
    19 OT SD       0.80E-01   12.8     0.00000536     -6883.6424660156 -3.81E-06
    20 OT DIIS     0.80E-01   12.5     0.00002188     -6883.6424537531  1.23E-05
    21 OT DIIS     0.80E-01   12.8     0.00000318     -6883.6424910852 -3.73E-05
    22 OT DIIS     0.80E-01   12.7     0.00000318     -6883.6425171655 -2.61E-05
    23 OT DIIS     0.80E-01   12.3     0.00000315     -6883.6425353526 -1.82E-05
    24 OT DIIS     0.80E-01   12.5     0.00000327     -6883.6425755453 -4.02E-05
    25 OT SD       0.80E-01   12.4     0.00000387     -6883.6426444238 -6.89E-05
    26 OT SD       0.80E-01   12.8     0.00000912     -6883.6426457315 -1.31E-06
    27 OT DIIS     0.80E-01   12.4     0.00004421     -6883.6425800061  6.57E-05
    28 OT DIIS     0.80E-01   12.7     0.00000331     -6883.6426615372 -8.15E-05
    29 OT DIIS     0.80E-01   13.0     0.00000332     -6883.6426968266 -3.53E-05
    30 OT SD       0.80E-01   13.1     0.00000318     -6883.6427133450 -1.65E-05
    31 OT DIIS     0.80E-01   13.4     0.00000670     -6883.6427160753 -2.73E-06
    32 OT SD       0.80E-01   13.3     0.00000387     -6883.6428093102 -9.32E-05
    33 OT SD       0.80E-01   13.0     0.00001096     -6883.6428091837  1.26E-07
    34 OT DIIS     0.80E-01   13.1     0.00006391     -6883.6426824406  1.27E-04
    35 OT DIIS     0.80E-01   13.3     0.00000339     -6883.6428787735 -1.96E-04
    36 OT DIIS     0.80E-01   13.2     0.00000395     -6883.6429077494 -2.90E-05
    37 OT SD       0.80E-01   13.4     0.00000409     -6883.6429324100 -2.47E-05
    38 OT SD       0.80E-01   13.2     0.00001145     -6883.6429315261  8.84E-07
    39 OT DIIS     0.80E-01   13.1     0.00006421     -6883.6427996326  1.32E-04
    40 OT DIIS     0.80E-01   13.1     0.00000292     -6883.6429284053 -1.29E-04
    41 OT DIIS     0.80E-01   13.2     0.00000279     -6883.6429333548 -4.95E-06
    42 OT DIIS     0.80E-01   12.9     0.00000278     -6883.6429386688 -5.31E-06
    43 OT DIIS     0.80E-01   13.0     0.00000282     -6883.6429392187 -5.50E-07
    44 OT DIIS     0.80E-01   13.2     0.00000279     -6883.6429392703 -5.16E-08
    45 OT DIIS     0.80E-01   12.9     0.00000269     -6883.6429424029 -3.13E-06
    46 OT DIIS     0.80E-01   12.7     0.00000279     -6883.6429499986 -7.60E-06
    47 OT SD       0.80E-01   12.9     0.00000279     -6883.6429696322 -1.96E-05
    48 OT DIIS     0.80E-01   13.2     0.00000677     -6883.6429716138 -1.98E-06
    49 OT DIIS     0.80E-01   12.8     0.00000275     -6883.6429824110 -1.08E-05
    50 OT DIIS     0.80E-01   12.4     0.00000288     -6883.6429939571 -1.15E-05
    51 OT SD       0.80E-01   12.7     0.00000278     -6883.6430076973 -1.37E-05
    52 OT DIIS     0.80E-01   13.1     0.00000748     -6883.6430092141 -1.52E-06
    53 OT DIIS     0.80E-01   12.8     0.00000268     -6883.6430361385 -2.69E-05
    54 OT SD       0.80E-01   13.5     0.00000274     -6883.6430563836 -2.02E-05
    55 OT DIIS     0.80E-01   13.0     0.00000728     -6883.6430577985 -1.41E-06
    56 OT DIIS     0.80E-01   13.1     0.00000261     -6883.6430886712 -3.09E-05
    57 OT DIIS     0.80E-01   12.9     0.00000260     -6883.6431100381 -2.14E-05
    58 OT SD       0.80E-01   13.1     0.00000254     -6883.6431220182 -1.20E-05
    59 OT DIIS     0.80E-01   13.2     0.00000437     -6883.6431243790 -2.36E-06
    60 OT DIIS     0.80E-01   13.1     0.00000261     -6883.6431491402 -2.48E-05
    61 OT DIIS     0.80E-01   13.2     0.00000261     -6883.6431581789 -9.04E-06
    62 OT DIIS     0.80E-01   13.2     0.00000252     -6883.6431621347 -3.96E-06
    63 OT DIIS     0.80E-01   13.0     0.00000265     -6883.6432004098 -3.83E-05
    64 OT SD       0.80E-01   13.0     0.00000260     -6883.6432077384 -7.33E-06
    65 OT SD       0.80E-01   13.0     0.00000635     -6883.6432092538 -1.52E-06
    66 OT DIIS     0.80E-01   13.2     0.00003653     -6883.6431688214  4.04E-05
    67 OT SD       0.80E-01   13.5     0.00000249     -6883.6432327337 -6.39E-05
    68 OT DIIS     0.80E-01   12.9     0.00000507     -6883.6432346099 -1.88E-06
    69 OT SD       0.80E-01   13.0     0.00000276     -6883.6432929393 -5.83E-05
    70 OT SD       0.80E-01   13.1     0.00000698     -6883.6432939227 -9.83E-07
    71 OT DIIS     0.80E-01   13.3     0.00003797     -6883.6432478437  4.61E-05
    72 OT DIIS     0.80E-01   13.4     0.00000239     -6883.6432971627 -4.93E-05
    73 OT DIIS     0.80E-01   12.6     0.00000268     -6883.6433446482 -4.75E-05
    74 OT SD       0.80E-01   12.9     0.00000322     -6883.6433899566 -4.53E-05
    75 OT SD       0.80E-01   12.9     0.00000533     -6883.6433915667 -1.61E-06
    76 OT DIIS     0.80E-01   13.5     0.00002291     -6883.6433756634  1.59E-05
    77 OT DIIS     0.80E-01   13.2     0.00000228     -6883.6433616372  1.40E-05
    78 OT DIIS     0.80E-01   13.3     0.00000231     -6883.6433743650 -1.27E-05
    79 OT SD       0.80E-01   12.9     0.00000251     -6883.6434036066 -2.92E-05
    80 OT DIIS     0.80E-01   13.3     0.00000646     -6883.6434045598 -9.53E-07
    81 OT SD       0.80E-01   13.0     0.00000264     -6883.6434223469 -1.78E-05
    82 OT DIIS     0.80E-01   12.8     0.00000922     -6883.6434218569  4.90E-07
    83 OT DIIS     0.80E-01   12.9     0.00000246     -6883.6434362371 -1.44E-05
    84 OT SD       0.80E-01   13.1     0.00000422     -6883.6435331506 -9.69E-05
    85 OT SD       0.80E-01   12.9     0.00001147     -6883.6435307984  2.35E-06
    86 OT DIIS     0.80E-01   12.8     0.00006340     -6883.6433997009  1.31E-04
    87 OT DIIS     0.80E-01   12.9     0.00000241     -6883.6434802247 -8.05E-05
    88 OT SD       0.80E-01   13.4     0.00000253     -6883.6435174426 -3.72E-05
    89 OT DIIS     0.80E-01   13.0     0.00000958     -6883.6435165408  9.02E-07
    90 OT SD       0.80E-01   12.9     0.00000210     -6883.6435290964 -1.26E-05
    91 OT DIIS     0.80E-01   12.9     0.00000370     -6883.6435306779 -1.58E-06
    92 OT DIIS     0.80E-01   13.1     0.00000205     -6883.6435321843 -1.51E-06
    93 OT DIIS     0.80E-01   13.1     0.00000201     -6883.6435391490 -6.96E-06
    94 OT DIIS     0.80E-01   13.2     0.00000224     -6883.6435561080 -1.70E-05
    95 OT SD       0.80E-01   13.2     0.00000259     -6883.6436055050 -4.94E-05
    96 OT SD       0.80E-01   13.4     0.00000879     -6883.6436048730  6.32E-07
    97 OT DIIS     0.80E-01   12.9     0.00005392     -6883.6435138433  9.10E-05
    98 OT DIIS     0.80E-01   13.0     0.00000223     -6883.6436247505 -1.11E-04
    99 OT DIIS     0.80E-01   13.3     0.00000269     -6883.6436540747 -2.93E-05
   100 OT SD       0.80E-01   12.9     0.00000266     -6883.6436699679 -1.59E-05

  Leaving inner SCF loop after reaching   100 steps.


  Electronic density on regular grids:      -2432.0000000066       -0.0000000066
  Core density on regular grids:             2431.9999999988       -0.0000000012
  Total charge density on r-space grids:       -0.0000000077
  Total charge density g-space grids:          -0.0000000077

  Overlap energy of the core charge distribution:               0.03711639588124
  Self energy of the core charge distribution:             -16017.19408509233290
  Core Hamiltonian energy:                                   4349.56090364964530
  Hartree energy:                                            6116.86843662813590
  Exchange-correlation energy:                              -1330.97903777629153
  Dispersion energy:                                           -1.93700377297250

  Total energy:                                             -6883.64366996793524

  outer SCF iter =    3 RMS gradient =   0.27E-05 energy =      -6883.6436699679

  ----------------------------------- OT ---------------------------------------
  Minimizer      : DIIS                : direct inversion
                                         in the iterative subspace
                                         using   7 DIIS vectors
                                         safer DIIS on
  Preconditioner : FULL_SINGLE_INVERSE : inversion of 
                                         H + eS - 2*(Sc)(c^T*H*c+const)(Sc)^T
  Precond_solver : DEFAULT
  stepsize       :    0.08000000                  energy_gap     :    0.08000000
  eps_taylor     :   0.10000E-15                  max_taylor     :             4
  ----------------------------------- OT ---------------------------------------

  Step     Update method      Time    Convergence         Total energy    Change
  ------------------------------------------------------------------------------
     1 OT DIIS     0.80E-01   34.8     0.00000673     -6883.6436701739 -2.06E-07
     2 OT DIIS     0.80E-01   12.3     0.00003629     -6883.6436276046  4.26E-05
     3 OT DIIS     0.80E-01   12.2     0.00000561     -6883.6436725875 -4.50E-05
     4 OT DIIS     0.80E-01   12.4     0.00000265     -6883.6436741133 -1.53E-06
     5 OT DIIS     0.80E-01   12.7     0.00000197     -6883.6436747201 -6.07E-07
     6 OT DIIS     0.80E-01   12.3     0.00000188     -6883.6436752658 -5.46E-07
     7 OT DIIS     0.80E-01   12.1     0.00000187     -6883.6436760480 -7.82E-07
     8 OT SD       0.80E-01   12.3     0.00000188     -6883.6436785960 -2.55E-06
     9 OT DIIS     0.80E-01   12.2     0.00000263     -6883.6436801190 -1.52E-06
    10 OT DIIS     0.80E-01   12.6     0.00000189     -6883.6436816007 -1.48E-06
    11 OT DIIS     0.80E-01   12.6     0.00000189     -6883.6436884321 -6.83E-06
    12 OT DIIS     0.80E-01   12.4     0.00000191     -6883.6436928784 -4.45E-06
    13 OT DIIS     0.80E-01   12.3     0.00000189     -6883.6436948553 -1.98E-06
    14 OT DIIS     0.80E-01   12.5     0.00000191     -6883.6436960571 -1.20E-06
    15 OT SD       0.80E-01   12.7     0.00000187     -6883.6437077426 -1.17E-05
    16 OT DIIS     0.80E-01   12.5     0.00000313     -6883.6437090708 -1.33E-06
    17 OT DIIS     0.80E-01   12.5     0.00000192     -6883.6437206560 -1.16E-05
    18 OT DIIS     0.80E-01   12.3     0.00000192     -6883.6437266292 -5.97E-06
    19 OT SD       0.80E-01   12.7     0.00000187     -6883.6437442235 -1.76E-05
    20 OT DIIS     0.80E-01   12.6     0.00000363     -6883.6437453801 -1.16E-06
    21 OT DIIS     0.80E-01   12.5     0.00000183     -6883.6437481687 -2.79E-06
    22 OT SD       0.80E-01   12.5     0.00000209     -6883.6437777109 -2.95E-05
    23 OT DIIS     0.80E-01   12.8     0.00000532     -6883.6437782180 -5.07E-07
    24 OT DIIS     0.80E-01   12.4     0.00000184     -6883.6437801708 -1.95E-06
    25 OT DIIS     0.80E-01   12.5     0.00000200     -6883.6438040960 -2.39E-05
    26 OT SD       0.80E-01   12.2     0.00000212     -6883.6438181496 -1.41E-05
    27 OT SD       0.80E-01   12.6     0.00000438     -6883.6438189612 -8.12E-07
    28 OT DIIS     0.80E-01   12.3     0.00002263     -6883.6438033301  1.56E-05
    29 OT SD       0.80E-01   12.3     0.00000183     -6883.6438261356 -2.28E-05
    30 OT SD       0.80E-01   12.2     0.00000413     -6883.6438270127 -8.77E-07
    31 OT DIIS     0.80E-01   12.4     0.00002330     -6883.6438110153  1.60E-05
    32 OT DIIS     0.80E-01   12.4     0.00000171     -6883.6438353022 -2.43E-05
    33 OT SD       0.80E-01   12.5     0.00000176     -6883.6438397447 -4.44E-06
    34 OT DIIS     0.80E-01   12.3     0.00000391     -6883.6438406599 -9.15E-07
    35 OT DIIS     0.80E-01   12.3     0.00000176     -6883.6438574967 -1.68E-05
    36 OT SD       0.80E-01   12.3     0.00000178     -6883.6438720512 -1.46E-05
    37 OT SD       0.80E-01   12.9     0.00000395     -6883.6438728716 -8.20E-07
    38 OT DIIS     0.80E-01   12.8     0.00002204     -6883.6438583621  1.45E-05
    39 OT DIIS     0.80E-01   12.6     0.00000273     -6883.6439219535 -6.36E-05
    40 OT SD       0.80E-01   12.7     0.00000312     -6883.6439387691 -1.68E-05
    41 OT SD       0.80E-01   12.7     0.00000605     -6883.6439385215  2.48E-07
    42 OT DIIS     0.80E-01   12.4     0.00002381     -6883.6439181889  2.03E-05
    43 OT DIIS     0.80E-01   12.5     0.00000192     -6883.6439061446  1.20E-05
    44 OT DIIS     0.80E-01   12.4     0.00000182     -6883.6439151285 -8.98E-06
    45 OT DIIS     0.80E-01   12.4     0.00000158     -6883.6439286361 -1.35E-05
    46 OT SD       0.80E-01   12.4     0.00000162     -6883.6439314308 -2.79E-06
    47 OT DIIS     0.80E-01   12.4     0.00000355     -6883.6439322541 -8.23E-07
    48 OT DIIS     0.80E-01   12.4     0.00000156     -6883.6439353694 -3.12E-06
    49 OT DIIS     0.80E-01   12.6     0.00000155     -6883.6439376049 -2.24E-06
    50 OT DIIS     0.80E-01   12.7     0.00000154     -6883.6439385230 -9.18E-07
    51 OT DIIS     0.80E-01   12.5     0.00000165     -6883.6439458223 -7.30E-06
    52 OT DIIS     0.80E-01   12.4     0.00000168     -6883.6439642424 -1.84E-05
    53 OT SD       0.80E-01   12.3     0.00000175     -6883.6439738538 -9.61E-06
    54 OT SD       0.80E-01   12.6     0.00000470     -6883.6439742608 -4.07E-07
    55 OT DIIS     0.80E-01   13.0     0.00002783     -6883.6439506740  2.36E-05
    56 OT SD       0.80E-01   13.4     0.00000254     -6883.6440141263 -6.35E-05
    57 OT SD       0.80E-01   12.9     0.00000522     -6883.6440141323 -5.99E-09
    58 OT DIIS     0.80E-01   12.6     0.00002226     -6883.6439967654  1.74E-05
    59 OT DIIS     0.80E-01   13.4     0.00000160     -6883.6439942744  2.49E-06
    60 OT SD       0.80E-01   13.1     0.00000180     -6883.6440286793 -3.44E-05
    61 OT DIIS     0.80E-01   13.1     0.00000516     -6883.6440288530 -1.74E-07
    62 OT DIIS     0.80E-01   13.1     0.00000153     -6883.6440316857 -2.83E-06
    63 OT SD       0.80E-01   13.0     0.00000284     -6883.6440722694 -4.06E-05
    64 OT SD       0.80E-01   13.1     0.00000599     -6883.6440718906  3.79E-07
    65 OT DIIS     0.80E-01   13.1     0.00002646     -6883.6440472358  2.47E-05
    66 OT DIIS     0.80E-01   13.1     0.00000222     -6883.6440537343 -6.50E-06
    67 OT SD       0.80E-01   13.4     0.00000180     -6883.6440672648 -1.35E-05
    68 OT DIIS     0.80E-01   12.9     0.00000720     -6883.6440665198  7.45E-07
    69 OT DIIS     0.80E-01   13.1     0.00000140     -6883.6440676818 -1.16E-06
    70 OT DIIS     0.80E-01   13.2     0.00000137     -6883.6440678507 -1.69E-07
    71 OT DIIS     0.80E-01   13.1     0.00000139     -6883.6440683507 -5.00E-07
    72 OT DIIS     0.80E-01   12.8     0.00000136     -6883.6440690402 -6.90E-07
    73 OT DIIS     0.80E-01   13.0     0.00000141     -6883.6440705620 -1.52E-06
    74 OT DIIS     0.80E-01   13.0     0.00000136     -6883.6440721943 -1.63E-06
    75 OT DIIS     0.80E-01   13.1     0.00000138     -6883.6440731291 -9.35E-07
    76 OT DIIS     0.80E-01   13.2     0.00000136     -6883.6440772266 -4.10E-06
    77 OT DIIS     0.80E-01   13.0     0.00000138     -6883.6440781600 -9.33E-07
    78 OT DIIS     0.80E-01   12.7     0.00000138     -6883.6440792061 -1.05E-06
    79 OT DIIS     0.80E-01   13.4     0.00000138     -6883.6440805006 -1.29E-06
    80 OT DIIS     0.80E-01   13.3     0.00000137     -6883.6440810504 -5.50E-07
    81 OT DIIS     0.80E-01   12.8     0.00000141     -6883.6440833290 -2.28E-06
    82 OT DIIS     0.80E-01   13.2     0.00000137     -6883.6440835302 -2.01E-07
    83 OT DIIS     0.80E-01   12.9     0.00000138     -6883.6440835672 -3.70E-08
    84 OT DIIS     0.80E-01   12.8     0.00000136     -6883.6440837316 -1.64E-07
    85 OT DIIS     0.80E-01   13.0     0.00000136     -6883.6440845731 -8.42E-07
    86 OT DIIS     0.80E-01   12.9     0.00000135     -6883.6440847146 -1.41E-07
    87 OT DIIS     0.80E-01   12.9     0.00000134     -6883.6440850214 -3.07E-07
    88 OT DIIS     0.80E-01   13.1     0.00000133     -6883.6440852244 -2.03E-07
    89 OT DIIS     0.80E-01   13.1     0.00000133     -6883.6440860089 -7.84E-07
    90 OT DIIS     0.80E-01   13.4     0.00000134     -6883.6440864285 -4.20E-07
    91 OT DIIS     0.80E-01   12.9     0.00000134     -6883.6440868936 -4.65E-07
    92 OT DIIS     0.80E-01   13.1     0.00000134     -6883.6440870694 -1.76E-07
    93 OT DIIS     0.80E-01   13.0     0.00000135     -6883.6440882011 -1.13E-06
    94 OT DIIS     0.80E-01   13.2     0.00000136     -6883.6440884928 -2.92E-07
    95 OT SD       0.80E-01   13.1     0.00000135     -6883.6440885461 -5.33E-08
    96 OT DIIS     0.80E-01   12.9     0.00000211     -6883.6440892974 -7.51E-07
    97 OT SD       0.80E-01   13.2     0.00000134     -6883.6440903836 -1.09E-06
    98 OT DIIS     0.80E-01   13.3     0.00000201     -6883.6440911432 -7.60E-07
    99 OT DIIS     0.80E-01   13.2     0.00000134     -6883.6440924680 -1.32E-06
   100 OT DIIS     0.80E-01   13.0     0.00000145     -6883.6440990435 -6.58E-06

  Leaving inner SCF loop after reaching   100 steps.


  Electronic density on regular grids:      -2432.0000000065       -0.0000000065
  Core density on regular grids:             2431.9999999988       -0.0000000012
  Total charge density on r-space grids:       -0.0000000077
  Total charge density g-space grids:          -0.0000000077

  Overlap energy of the core charge distribution:               0.03711639588124
  Self energy of the core charge distribution:             -16017.19408509233290
  Core Hamiltonian energy:                                   4349.55894214603177
  Hartree energy:                                            6116.86965195283574
  Exchange-correlation energy:                              -1330.97872067296089
  Dispersion energy:                                           -1.93700377297250

  Total energy:                                             -6883.64409904351760

  outer SCF iter =    4 RMS gradient =   0.14E-05 energy =      -6883.6440990435

  ----------------------------------- OT ---------------------------------------
  Minimizer      : DIIS                : direct inversion
                                         in the iterative subspace
                                         using   7 DIIS vectors
                                         safer DIIS on
  Preconditioner : FULL_SINGLE_INVERSE : inversion of 
                                         H + eS - 2*(Sc)(c^T*H*c+const)(Sc)^T
  Precond_solver : DEFAULT
  stepsize       :    0.08000000                  energy_gap     :    0.08000000
  eps_taylor     :   0.10000E-15                  max_taylor     :             4
  ----------------------------------- OT ---------------------------------------

  Step     Update method      Time    Convergence         Total energy    Change
  ------------------------------------------------------------------------------
     1 OT DIIS     0.80E-01   34.5     0.00000150     -6883.6441005426 -1.50E-06
     2 OT DIIS     0.80E-01   12.3     0.00000482     -6883.6441006563 -1.14E-07
     3 OT DIIS     0.80E-01   12.6     0.00000137     -6883.6441014855 -8.29E-07
     4 OT DIIS     0.80E-01   12.2     0.00000130     -6883.6441016585 -1.73E-07
     5 OT DIIS     0.80E-01   12.2     0.00000130     -6883.6441019610 -3.03E-07
     6 OT DIIS     0.80E-01   12.5     0.00000130     -6883.6441030147 -1.05E-06
     7 OT DIIS     0.80E-01   12.7     0.00000133     -6883.6441078585 -4.84E-06
     8 OT SD       0.80E-01   12.4     0.00000145     -6883.6441231011 -1.52E-05
     9 OT SD       0.80E-01   12.4     0.00000344     -6883.6441235324 -4.31E-07
    10 OT DIIS     0.80E-01   12.4     0.00001959     -6883.6441119216  1.16E-05
    11 OT DIIS     0.80E-01   12.5     0.00000288     -6883.6441584665 -4.65E-05
    12 OT DIIS     0.80E-01   12.6     0.00000345     -6883.6441667281 -8.26E-06
    13 OT SD       0.80E-01   12.5     0.00000361     -6883.6441677866 -1.06E-06
    14 OT SD       0.80E-01   12.7     0.00000961     -6883.6441649794  2.81E-06
    15 OT DIIS     0.80E-01   12.5     0.00004759     -6883.6440858374  7.91E-05
    16 OT DIIS     0.80E-01   12.8     0.00000148     -6883.6441361280 -5.03E-05
    17 OT DIIS     0.80E-01   12.7     0.00000150     -6883.6441545283 -1.84E-05
    18 OT DIIS     0.80E-01   12.4     0.00000138     -6883.6441545060  2.23E-08
    19 OT DIIS     0.80E-01   12.7     0.00000124     -6883.6441547316 -2.26E-07
    20 OT DIIS     0.80E-01   12.8     0.00000122     -6883.6441572692 -2.54E-06
    21 OT DIIS     0.80E-01   12.6     0.00000125     -6883.6441628573 -5.59E-06
    22 OT SD       0.80E-01   12.5     0.00000121     -6883.6441633539 -4.97E-07
    23 OT DIIS     0.80E-01   12.8     0.00000133     -6883.6441640273 -6.73E-07
    24 OT DIIS     0.80E-01   12.6     0.00000121     -6883.6441643824 -3.55E-07
    25 OT DIIS     0.80E-01   12.3     0.00000132     -6883.6441732534 -8.87E-06
    26 OT SD       0.80E-01   12.6     0.00000489     -6883.6442135451 -4.03E-05
    27 OT DIIS     0.80E-01   12.6     0.00001112     -6883.6442094818  4.06E-06
    28 OT SD       0.80E-01   12.5     0.00000210     -6883.6442040184  5.46E-06
    29 OT DIIS     0.80E-01   12.5     0.00000937     -6883.6442015137  2.50E-06
    30 OT DIIS     0.80E-01   12.6     0.00000162     -6883.6442045429 -3.03E-06
    31 OT SD       0.80E-01   12.6     0.00000581     -6883.6442394464 -3.49E-05
    32 OT SD       0.80E-01   12.6     0.00001189     -6883.6442342774  5.17E-06
    33 OT DIIS     0.80E-01   12.5     0.00004496     -6883.6441546092  7.97E-05
    34 OT DIIS     0.80E-01   12.6     0.00000121     -6883.6442079760 -5.34E-05
    35 OT DIIS     0.80E-01   12.3     0.00000127     -6883.6442134006 -5.42E-06
    36 OT DIIS     0.80E-01   12.5     0.00000116     -6883.6442158235 -2.42E-06
    37 OT DIIS     0.80E-01   12.7     0.00000115     -6883.6442176013 -1.78E-06
    38 OT DIIS     0.80E-01   12.6     0.00000113     -6883.6442193423 -1.74E-06
    39 OT DIIS     0.80E-01   12.7     0.00000154     -6883.6442351087 -1.58E-05
    40 OT SD       0.80E-01   13.1     0.00000147     -6883.6442386870 -3.58E-06
    41 OT SD       0.80E-01   12.4     0.00000280     -6883.6442389158 -2.29E-07
    42 OT DIIS     0.80E-01   12.4     0.00001174     -6883.6442343987  4.52E-06
    43 OT DIIS     0.80E-01   12.5     0.00000115     -6883.6442373563 -2.96E-06
    44 OT SD       0.80E-01   12.3     0.00000245     -6883.6442608283 -2.35E-05
    45 OT DIIS     0.80E-01   12.9     0.00000595     -6883.6442600809  7.47E-07
    46 OT DIIS     0.80E-01   13.2     0.00000173     -6883.6442720223 -1.19E-05
    47 OT SD       0.80E-01   13.0     0.00000353     -6883.6442866775 -1.47E-05
    48 OT SD       0.80E-01   13.1     0.00000947     -6883.6442839037  2.77E-06
    49 OT DIIS     0.80E-01   12.9     0.00004892     -6883.6442018603  8.20E-05
    50 OT DIIS     0.80E-01   13.2     0.00000264     -6883.6442767873 -7.49E-05
    51 OT SD       0.80E-01   12.8     0.00000264     -6883.6442852300 -8.44E-06
    52 OT DIIS     0.80E-01   13.2     0.00001592     -6883.6442777053  7.52E-06
    53 OT DIIS     0.80E-01   12.9     0.00000100     -6883.6442829734 -5.27E-06
    54 OT SD       0.80E-01   12.9     0.00000106     -6883.6442836944 -7.21E-07
    55 OT DIIS     0.80E-01   13.2     0.00000336     -6883.6442837359 -4.15E-08
    56 OT DIIS     0.80E-01   13.1     0.00000097     -6883.6442840828 -3.47E-07

  *** SCF run converged in    56 steps ***


  Electronic density on regular grids:      -2432.0000000065       -0.0000000065
  Core density on regular grids:             2431.9999999988       -0.0000000012
  Total charge density on r-space grids:       -0.0000000077
  Total charge density g-space grids:          -0.0000000077

  Overlap energy of the core charge distribution:               0.03711639588124
  Self energy of the core charge distribution:             -16017.19408509233290
  Core Hamiltonian energy:                                   4349.55792086407291
  Hartree energy:                                            6116.87043708185411
  Exchange-correlation energy:                              -1330.97866955931863
  Dispersion energy:                                           -1.93700377297250

  Total energy:                                             -6883.64428408281674

  outer SCF iter =    5 RMS gradient =   0.97E-06 energy =      -6883.6442840828
  outer SCF loop converged in   5 iterations or  456 steps


 ENERGY| Total FORCE_EVAL ( QS ) energy [hartree]          -6883.644284158111077

 Number of electrons:                                                       2432
 Number of occupied orbitals:                                               1216
 Number of molecular orbitals:                                              1216

 Number of orbital functions:                                               4983
 Number of independent orbital functions:                                   4983

 Extrapolation method: ASPC


 SCF WAVEFUNCTION OPTIMIZATION

  ----------------------------------- OT ---------------------------------------
  Minimizer      : DIIS                : direct inversion
                                         in the iterative subspace
                                         using   7 DIIS vectors
                                         safer DIIS on
  Preconditioner : FULL_SINGLE_INVERSE : inversion of 
                                         H + eS - 2*(Sc)(c^T*H*c+const)(Sc)^T
  Precond_solver : DEFAULT
  stepsize       :    0.08000000                  energy_gap     :    0.08000000
  eps_taylor     :   0.10000E-15                  max_taylor     :             4
  ----------------------------------- OT ---------------------------------------

  Step     Update method      Time    Convergence         Total energy    Change
  ------------------------------------------------------------------------------
     1 OT DIIS     0.80E-01   19.8     0.00452032     -6892.7221027610 -6.89E+03
     2 OT DIIS     0.80E-01   13.0     0.00282993     -6900.4668708851 -7.74E+00
     3 OT DIIS     0.80E-01   12.8     0.00194924     -6904.7844237274 -4.32E+00
     4 OT DIIS     0.80E-01   12.9     0.00152506     -6906.1526308235 -1.37E+00
     5 OT DIIS     0.80E-01   12.9     0.00118007     -6906.9198724001 -7.67E-01
     6 OT DIIS     0.80E-01   13.1     0.00114206     -6907.2471640418 -3.27E-01
     7 OT DIIS     0.80E-01   13.0     0.00099433     -6907.4617763020 -2.15E-01
     8 OT SD       0.80E-01   13.3     0.00089276     -6907.6462047022 -1.84E-01
     9 OT SD       0.80E-01   13.2     0.00102073     -6908.0522999752 -4.06E-01
    10 OT DIIS     0.80E-01   13.0     0.00090182     -6908.3785760518 -3.26E-01
    11 OT DIIS     0.80E-01   12.9     0.00118062     -6908.1957066922  1.83E-01
    12 OT DIIS     0.80E-01   13.0     0.00105524     -6908.2638314472 -6.81E-02
    13 OT DIIS     0.80E-01   13.0     0.00098939     -6908.2625487194  1.28E-03
    14 OT DIIS     0.80E-01   13.4     0.00081758     -6908.3529312171 -9.04E-02
    15 OT DIIS     0.80E-01   13.2     0.00093034     -6908.3983799911 -4.54E-02
    16 OT DIIS     0.80E-01   13.4     0.00053291     -6908.5662631775 -1.68E-01
    17 OT DIIS     0.80E-01   13.1     0.00055638     -6908.6154725411 -4.92E-02
    18 OT SD       0.80E-01   12.9     0.00059627     -6908.6567994822 -4.13E-02
    19 OT SD       0.80E-01   12.9     0.00088657     -6908.7781841396 -1.21E-01
    20 OT DIIS     0.80E-01   13.0     0.00212027     -6908.6793733785  9.88E-02
    21 OT DIIS     0.80E-01   13.2     0.00076367     -6908.7001749066 -2.08E-02
    22 OT DIIS     0.80E-01   12.9     0.00067449     -6908.7630194838 -6.28E-02
    23 OT DIIS     0.80E-01   13.2     0.00064311     -6908.7638979916 -8.79E-04
    24 OT DIIS     0.80E-01   13.3     0.00067121     -6908.8377672057 -7.39E-02
    25 OT DIIS     0.80E-01   13.3     0.00057556     -6908.8714023670 -3.36E-02
    26 OT DIIS     0.80E-01   12.9     0.00041900     -6909.0195249579 -1.48E-01
    27 OT DIIS     0.80E-01   12.7     0.00053114     -6909.0644736683 -4.49E-02
    28 OT DIIS     0.80E-01   13.1     0.00048086     -6909.1067437506 -4.23E-02
    29 OT DIIS     0.80E-01   13.0     0.00046284     -6909.1186450339 -1.19E-02
    30 OT DIIS     0.80E-01   13.2     0.00042683     -6909.1557788437 -3.71E-02
    31 OT DIIS     0.80E-01   13.0     0.00039299     -6909.1645041311 -8.73E-03
    32 OT DIIS     0.80E-01   13.2     0.00038162     -6909.2152333602 -5.07E-02
    33 OT DIIS     0.80E-01   13.2     0.00036444     -6909.2390136991 -2.38E-02
    34 OT DIIS     0.80E-01   12.9     0.00036800     -6909.2715957596 -3.26E-02
    35 OT DIIS     0.80E-01   13.0     0.00036915     -6909.2795918170 -8.00E-03
    36 OT SD       0.80E-01   13.3     0.00037008     -6909.2865886320 -7.00E-03
    37 OT SD       0.80E-01   12.8     0.00037222     -6909.3522556806 -6.57E-02
    38 OT SD       0.80E-01   13.0     0.00038210     -6909.4169728163 -6.47E-02
    39 OT SD       0.80E-01   13.2     0.00043721     -6909.4779561447 -6.10E-02
    40 OT SD       0.80E-01   13.2     0.00068355     -6909.5220091147 -4.41E-02
    41 OT DIIS     0.80E-01   13.1     0.00147868     -6909.4649621779  5.70E-02
    42 OT SD       0.80E-01   12.9     0.00044552     -6909.5144870044 -4.95E-02
    43 OT SD       0.80E-01   13.1     0.00048052     -6909.5937919874 -7.93E-02
    44 OT SD       0.80E-01   12.9     0.00081886     -6909.6362976188 -4.25E-02
    45 OT DIIS     0.80E-01   13.4     0.00184589     -6909.5061639861  1.30E-01
    46 OT DIIS     0.80E-01   13.0     0.00033516     -6909.4812847484  2.49E-02
    47 OT SD       0.80E-01   13.0     0.00032535     -6909.5252545572 -4.40E-02
    48 OT SD       0.80E-01   13.2     0.00035842     -6909.5705795286 -4.53E-02
    49 OT DIIS     0.80E-01   13.0     0.00053304     -6909.6067720335 -3.62E-02
    50 OT DIIS     0.80E-01   12.8     0.00030916     -6909.6059010370  8.71E-04
    51 OT DIIS     0.80E-01   13.0     0.00030497     -6909.6496704112 -4.38E-02
    52 OT DIIS     0.80E-01   12.9     0.00030531     -6909.6717036353 -2.20E-02
    53 OT SD       0.80E-01   13.0     0.00030631     -6909.6736537994 -1.95E-03
    54 OT SD       0.80E-01   13.1     0.00032328     -6909.7179440192 -4.43E-02
    55 OT SD       0.80E-01   13.2     0.00040418     -6909.7598866051 -4.19E-02
    56 OT SD       0.80E-01   13.4     0.00073400     -6909.7806253506 -2.07E-02
    57 OT DIIS     0.80E-01   13.2     0.00165231     -6909.6670040366  1.14E-01
    58 OT DIIS     0.80E-01   13.0     0.00030759     -6909.6881274333 -2.11E-02
    59 OT SD       0.80E-01   13.1     0.00031536     -6909.7165254713 -2.84E-02
    60 OT SD       0.80E-01   13.2     0.00034334     -6909.7620699154 -4.55E-02
    61 OT SD       0.80E-01   12.9     0.00049035     -6909.8010003487 -3.89E-02
    62 OT DIIS     0.80E-01   13.2     0.00102546     -6909.7921465950  8.85E-03
    63 OT SD       0.80E-01   13.5     0.00033466     -6909.7670047636  2.51E-02
    64 OT SD       0.80E-01   13.3     0.00039178     -6909.8114752421 -4.45E-02
    65 OT SD       0.80E-01   13.2     0.00062799     -6909.8409127117 -2.94E-02
    66 OT DIIS     0.80E-01   13.1     0.00129727     -6909.7900847462  5.08E-02
    67 OT DIIS     0.80E-01   13.0     0.00031225     -6909.8762460495 -8.62E-02
    68 OT SD       0.80E-01   12.9     0.00030643     -6909.9160421781 -3.98E-02
    69 OT SD       0.80E-01   12.8     0.00031244     -6909.9585157150 -4.25E-02
    70 OT DIIS     0.80E-01   12.8     0.00039137     -6909.9944079982 -3.59E-02
    71 OT DIIS     0.80E-01   13.2     0.00026757     -6910.0784254654 -8.40E-02
    72 OT DIIS     0.80E-01   13.4     0.00025465     -6910.1443928137 -6.60E-02
    73 OT DIIS     0.80E-01   13.4     0.00027346     -6910.1793947684 -3.50E-02
    74 OT DIIS     0.80E-01   13.4     0.00023820     -6910.2318227083 -5.24E-02
    75 OT DIIS     0.80E-01   13.4     0.00020313     -6910.2749620288 -4.31E-02
    76 OT DIIS     0.80E-01   13.0     0.00019089     -6910.2978903945 -2.29E-02
    77 OT DIIS     0.80E-01   12.9     0.00017121     -6910.3343309403 -3.64E-02
    78 OT DIIS     0.80E-01   12.9     0.00016443     -6910.3615939826 -2.73E-02
    79 OT DIIS     0.80E-01   13.1     0.00014579     -6910.3940883108 -3.25E-02
    80 OT DIIS     0.80E-01   13.0     0.00013223     -6910.4164865659 -2.24E-02
    81 OT DIIS     0.80E-01   13.3     0.00012441     -6910.4390173688 -2.25E-02
    82 OT DIIS     0.80E-01   13.1     0.00011829     -6910.4620186313 -2.30E-02
    83 OT DIIS     0.80E-01   13.2     0.00011451     -6910.4803498650 -1.83E-02
    84 OT DIIS     0.80E-01   13.4     0.00010787     -6910.4918819673 -1.15E-02
    85 OT DIIS     0.80E-01   12.7     0.00010516     -6910.5064685461 -1.46E-02
    86 OT DIIS     0.80E-01   13.1     0.00009828     -6910.5202030642 -1.37E-02
    87 OT DIIS     0.80E-01   13.4     0.00009576     -6910.5317290928 -1.15E-02
    88 OT DIIS     0.80E-01   13.1     0.00008834     -6910.5455366176 -1.38E-02
    89 OT DIIS     0.80E-01   13.3     0.00008370     -6910.5558403007 -1.03E-02
    90 OT DIIS     0.80E-01   13.2     0.00007865     -6910.5653994217 -9.56E-03
    91 OT DIIS     0.80E-01   13.1     0.00007612     -6910.5758077899 -1.04E-02
    92 OT DIIS     0.80E-01   13.3     0.00007316     -6910.5815959705 -5.79E-03
    93 OT DIIS     0.80E-01   13.1     0.00006713     -6910.5866065069 -5.01E-03
    94 OT DIIS     0.80E-01   13.0     0.00006341     -6910.5919459928 -5.34E-03
    95 OT DIIS     0.80E-01   13.4     0.00006160     -6910.5972624852 -5.32E-03
    96 OT DIIS     0.80E-01   13.1     0.00005837     -6910.6026976119 -5.44E-03
    97 OT DIIS     0.80E-01   13.2     0.00005369     -6910.6078116733 -5.11E-03
    98 OT DIIS     0.80E-01   13.1     0.00005013     -6910.6109430285 -3.13E-03
    99 OT DIIS     0.80E-01   12.7     0.00004677     -6910.6131156517 -2.17E-03
   100 OT DIIS     0.80E-01   13.1     0.00004589     -6910.6158055620 -2.69E-03

  Leaving inner SCF loop after reaching   100 steps.


  Electronic density on regular grids:      -2432.0000000008       -0.0000000008
  Core density on regular grids:             2431.9999999988       -0.0000000012
  Total charge density on r-space grids:       -0.0000000020
  Total charge density g-space grids:          -0.0000000020

  Overlap energy of the core charge distribution:               0.00098451682096
  Self energy of the core charge distribution:             -16017.19408509233290
  Core Hamiltonian energy:                                   4291.26927067933048
  Hartree energy:                                            6141.29994613952113
  Exchange-correlation energy:                              -1324.04748103813699
  Dispersion energy:                                           -1.94444076721948

  Total energy:                                             -6910.61580556201807

  outer SCF iter =    1 RMS gradient =   0.46E-04 energy =      -6910.6158055620

  ----------------------------------- OT ---------------------------------------
  Minimizer      : DIIS                : direct inversion
                                         in the iterative subspace
                                         using   7 DIIS vectors
                                         safer DIIS on
  Preconditioner : FULL_SINGLE_INVERSE : inversion of 
                                         H + eS - 2*(Sc)(c^T*H*c+const)(Sc)^T
  Precond_solver : DEFAULT
  stepsize       :    0.08000000                  energy_gap     :    0.08000000
  eps_taylor     :   0.10000E-15                  max_taylor     :             4
  ----------------------------------- OT ---------------------------------------

  Step     Update method      Time    Convergence         Total energy    Change
  ------------------------------------------------------------------------------
     1 OT DIIS     0.80E-01   37.1     0.00011033     -6910.6194754202 -3.67E-03
     2 OT DIIS     0.80E-01   12.4     0.00009853     -6910.6244371732 -4.96E-03
     3 OT DIIS     0.80E-01   12.4     0.00015576     -6910.6262391328 -1.80E-03
     4 OT DIIS     0.80E-01   12.7     0.00010621     -6910.6303312484 -4.09E-03
     5 OT DIIS     0.80E-01   13.1     0.00008636     -6910.6326981285 -2.37E-03
     6 OT DIIS     0.80E-01   12.8     0.00006771     -6910.6343091885 -1.61E-03
     7 OT DIIS     0.80E-01   12.9     0.00006446     -6910.6362213351 -1.91E-03
     8 OT DIIS     0.80E-01   12.9     0.00006485     -6910.6383166470 -2.10E-03
     9 OT DIIS     0.80E-01   12.9     0.00006174     -6910.6396384627 -1.32E-03
    10 OT DIIS     0.80E-01   12.9     0.00005583     -6910.6426316697 -2.99E-03
    11 OT DIIS     0.80E-01   13.3     0.00004855     -6910.6445911522 -1.96E-03
    12 OT DIIS     0.80E-01   13.3     0.00004523     -6910.6456703384 -1.08E-03
    13 OT DIIS     0.80E-01   12.9     0.00004639     -6910.6463160569 -6.46E-04
    14 OT DIIS     0.80E-01   13.0     0.00004243     -6910.6469910021 -6.75E-04
    15 OT DIIS     0.80E-01   12.9     0.00003753     -6910.6476416283 -6.51E-04
    16 OT DIIS     0.80E-01   13.0     0.00003314     -6910.6483294076 -6.88E-04
    17 OT DIIS     0.80E-01   12.9     0.00002891     -6910.6489631190 -6.34E-04
    18 OT DIIS     0.80E-01   13.3     0.00002976     -6910.6493093968 -3.46E-04
    19 OT DIIS     0.80E-01   13.1     0.00003082     -6910.6494634781 -1.54E-04
    20 OT DIIS     0.80E-01   13.2     0.00002766     -6910.6497564857 -2.93E-04
    21 OT DIIS     0.80E-01   13.1     0.00002781     -6910.6501313337 -3.75E-04
    22 OT DIIS     0.80E-01   12.8     0.00002843     -6910.6504705438 -3.39E-04
    23 OT DIIS     0.80E-01   13.0     0.00002724     -6910.6508219773 -3.51E-04
    24 OT DIIS     0.80E-01   12.8     0.00002666     -6910.6510436236 -2.22E-04
    25 OT DIIS     0.80E-01   13.4     0.00002595     -6910.6510484992 -4.88E-06
    26 OT DIIS     0.80E-01   13.1     0.00002443     -6910.6514906579 -4.42E-04
    27 OT DIIS     0.80E-01   13.3     0.00002512     -6910.6518418696 -3.51E-04
    28 OT DIIS     0.80E-01   13.1     0.00002540     -6910.6518500353 -8.17E-06
    29 OT DIIS     0.80E-01   13.4     0.00002480     -6910.6519926271 -1.43E-04
    30 OT DIIS     0.80E-01   13.2     0.00002427     -6910.6521929859 -2.00E-04
    31 OT DIIS     0.80E-01   13.2     0.00002341     -6910.6523475509 -1.55E-04
    32 OT DIIS     0.80E-01   12.9     0.00002312     -6910.6525284728 -1.81E-04
    33 OT DIIS     0.80E-01   13.3     0.00002336     -6910.6526813379 -1.53E-04
    34 OT DIIS     0.80E-01   13.2     0.00002251     -6910.6527765660 -9.52E-05
    35 OT DIIS     0.80E-01   13.0     0.00002236     -6910.6530184775 -2.42E-04
    36 OT DIIS     0.80E-01   13.3     0.00002313     -6910.6531734242 -1.55E-04
    37 OT DIIS     0.80E-01   13.3     0.00002326     -6910.6533609592 -1.88E-04
    38 OT DIIS     0.80E-01   13.3     0.00002336     -6910.6535283151 -1.67E-04
    39 OT DIIS     0.80E-01   13.5     0.00002307     -6910.6536301280 -1.02E-04
    40 OT DIIS     0.80E-01   12.8     0.00002248     -6910.6538333151 -2.03E-04
    41 OT DIIS     0.80E-01   13.0     0.00002267     -6910.6541412736 -3.08E-04
    42 OT DIIS     0.80E-01   13.5     0.00002291     -6910.6541907962 -4.95E-05
    43 OT DIIS     0.80E-01   13.1     0.00002233     -6910.6543428995 -1.52E-04
    44 OT DIIS     0.80E-01   13.1     0.00002285     -6910.6545897975 -2.47E-04
    45 OT DIIS     0.80E-01   13.1     0.00002307     -6910.6547605714 -1.71E-04
    46 OT DIIS     0.80E-01   12.4     0.00002344     -6910.6548713353 -1.11E-04
    47 OT DIIS     0.80E-01   13.2     0.00002321     -6910.6549298855 -5.86E-05
    48 OT DIIS     0.80E-01   13.4     0.00002172     -6910.6550560541 -1.26E-04
    49 OT DIIS     0.80E-01   13.3     0.00002122     -6910.6553051872 -2.49E-04
    50 OT DIIS     0.80E-01   13.2     0.00002190     -6910.6553637801 -5.86E-05
    51 OT DIIS     0.80E-01   13.0     0.00002123     -6910.6553797252 -1.59E-05
    52 OT DIIS     0.80E-01   13.2     0.00002075     -6910.6555748102 -1.95E-04
    53 OT DIIS     0.80E-01   13.0     0.00002085     -6910.6557052683 -1.30E-04
    54 OT DIIS     0.80E-01   12.8     0.00002144     -6910.6557888820 -8.36E-05
    55 OT DIIS     0.80E-01   13.2     0.00002161     -6910.6558521943 -6.33E-05
    56 OT DIIS     0.80E-01   12.9     0.00002027     -6910.6559272047 -7.50E-05
    57 OT DIIS     0.80E-01   13.2     0.00001945     -6910.6561097515 -1.83E-04
    58 OT SD       0.80E-01   13.1     0.00002026     -6910.6562206308 -1.11E-04
    59 OT DIIS     0.80E-01   13.2     0.00005285     -6910.6562416306 -2.10E-05
    60 OT DIIS     0.80E-01   13.2     0.00002233     -6910.6566983030 -4.57E-04
    61 OT DIIS     0.80E-01   13.5     0.00002097     -6910.6566683963  2.99E-05
    62 OT DIIS     0.80E-01   13.2     0.00002176     -6910.6568003191 -1.32E-04
    63 OT DIIS     0.80E-01   13.5     0.00002217     -6910.6569579452 -1.58E-04
    64 OT DIIS     0.80E-01   13.0     0.00002138     -6910.6570319313 -7.40E-05
    65 OT SD       0.80E-01   13.2     0.00002303     -6910.6579281269 -8.96E-04
    66 OT DIIS     0.80E-01   13.1     0.00007630     -6910.6577466221  1.82E-04
    67 OT DIIS     0.80E-01   13.2     0.00001442     -6910.6580980970 -3.51E-04
    68 OT DIIS     0.80E-01   13.4     0.00001535     -6910.6581723332 -7.42E-05
    69 OT DIIS     0.80E-01   12.8     0.00001240     -6910.6584080282 -2.36E-04
    70 OT DIIS     0.80E-01   13.2     0.00001278     -6910.6584639306 -5.59E-05
    71 OT DIIS     0.80E-01   13.0     0.00001288     -6910.6585969885 -1.33E-04
    72 OT DIIS     0.80E-01   13.1     0.00001058     -6910.6587401457 -1.43E-04
    73 OT DIIS     0.80E-01   12.9     0.00001207     -6910.6587960893 -5.59E-05
    74 OT DIIS     0.80E-01   13.1     0.00001033     -6910.6589797492 -1.84E-04
    75 OT DIIS     0.80E-01   13.4     0.00001004     -6910.6591334077 -1.54E-04
    76 OT DIIS     0.80E-01   13.1     0.00000999     -6910.6592758780 -1.42E-04
    77 OT DIIS     0.80E-01   13.2     0.00000973     -6910.6593940799 -1.18E-04
    78 OT DIIS     0.80E-01   13.3     0.00000997     -6910.6594889668 -9.49E-05
    79 OT DIIS     0.80E-01   13.4     0.00001082     -6910.6596219898 -1.33E-04
    80 OT DIIS     0.80E-01   13.6     0.00000948     -6910.6597947706 -1.73E-04
    81 OT DIIS     0.80E-01   12.9     0.00000970     -6910.6598413566 -4.66E-05
    82 OT DIIS     0.80E-01   13.1     0.00000871     -6910.6599045563 -6.32E-05
    83 OT DIIS     0.80E-01   13.0     0.00000977     -6910.6600675004 -1.63E-04
    84 OT DIIS     0.80E-01   13.2     0.00000948     -6910.6601569398 -8.94E-05
    85 OT DIIS     0.80E-01   13.4     0.00000943     -6910.6603296870 -1.73E-04
    86 OT DIIS     0.80E-01   13.2     0.00000930     -6910.6604232786 -9.36E-05
    87 OT SD       0.80E-01   13.3     0.00000891     -6910.6604542199 -3.09E-05
    88 OT DIIS     0.80E-01   12.9     0.00001589     -6910.6604722656 -1.80E-05
    89 OT DIIS     0.80E-01   12.9     0.00000831     -6910.6606102051 -1.38E-04
    90 OT DIIS     0.80E-01   12.9     0.00001020     -6910.6607312997 -1.21E-04
    91 OT DIIS     0.80E-01   13.0     0.00000875     -6910.6608318549 -1.01E-04
    92 OT SD       0.80E-01   13.0     0.00001007     -6910.6609334979 -1.02E-04
    93 OT SD       0.80E-01   13.2     0.00001416     -6910.6609513073 -1.78E-05
    94 OT DIIS     0.80E-01   13.5     0.00005040     -6910.6608676716  8.36E-05
    95 OT DIIS     0.80E-01   13.0     0.00000684     -6910.6609688292 -1.01E-04
    96 OT DIIS     0.80E-01   12.8     0.00000879     -6910.6610992931 -1.30E-04
    97 OT DIIS     0.80E-01   12.9     0.00000922     -6910.6611874500 -8.82E-05
    98 OT DIIS     0.80E-01   13.0     0.00000855     -6910.6612048926 -1.74E-05
    99 OT SD       0.80E-01   13.2     0.00000875     -6910.6613027355 -9.78E-05
   100 OT DIIS     0.80E-01   13.4     0.00002563     -6910.6612873835  1.54E-05

  Leaving inner SCF loop after reaching   100 steps.


  Electronic density on regular grids:      -2432.0000000009       -0.0000000009
  Core density on regular grids:             2431.9999999988       -0.0000000012
  Total charge density on r-space grids:       -0.0000000020
  Total charge density g-space grids:          -0.0000000020

  Overlap energy of the core charge distribution:               0.00098451682096
  Self energy of the core charge distribution:             -16017.19408509233290
  Core Hamiltonian energy:                                   4290.91998683747534
  Hartree energy:                                            6141.56639328732672
  Exchange-correlation energy:                              -1324.01012616560433
  Dispersion energy:                                           -1.94444076721948

  Total energy:                                             -6910.66128738353382

  outer SCF iter =    2 RMS gradient =   0.26E-04 energy =      -6910.6612873835

  ----------------------------------- OT ---------------------------------------
  Minimizer      : DIIS                : direct inversion
                                         in the iterative subspace
                                         using   7 DIIS vectors
                                         safer DIIS on
  Preconditioner : FULL_SINGLE_INVERSE : inversion of 
                                         H + eS - 2*(Sc)(c^T*H*c+const)(Sc)^T
  Precond_solver : DEFAULT
  stepsize       :    0.08000000                  energy_gap     :    0.08000000
  eps_taylor     :   0.10000E-15                  max_taylor     :             4
  ----------------------------------- OT ---------------------------------------

  Step     Update method      Time    Convergence         Total energy    Change
  ------------------------------------------------------------------------------
     1 OT DIIS     0.80E-01   37.1     0.00000777     -6910.6613891210 -1.02E-04
     2 OT DIIS     0.80E-01   12.1     0.00002680     -6910.6613753415  1.38E-05
     3 OT DIIS     0.80E-01   12.5     0.00000635     -6910.6614050444 -2.97E-05
     4 OT DIIS     0.80E-01   12.2     0.00000525     -6910.6614099194 -4.87E-06
     5 OT DIIS     0.80E-01   12.6     0.00000525     -6910.6614178729 -7.95E-06
     6 OT DIIS     0.80E-01   12.7     0.00000540     -6910.6614364840 -1.86E-05
[...]
  Core Hamiltonian energy:                                   4263.92177437716509
  Hartree energy:                                            6153.17373539469099
  Exchange-correlation energy:                              -1319.59122423947656
  Dispersion energy:                                           -1.90688425125044

  Total energy:                                             -6921.59667449927383

  outer SCF iter =    1 RMS gradient =   0.63E-06 energy =      -6921.5966744993
  outer SCF loop converged in   1 iterations or   17 steps


 ENERGY| Total FORCE_EVAL ( QS ) energy [hartree]          -6921.596674542064648

 OPT| **************************************************************************
 OPT| Step number                                                            200
 OPT| Optimization method                                                  LBFGS
 OPT| Total energy [hartree]                                    -6921.5966745421
 OPT| Effective energy change [hartree]                            -0.0007015063
 OPT| Decrease in energy                                                     YES
 OPT| Used time [s]                                                      237.353
 OPT|
 OPT| Maximum step size                                             0.0200865540
 OPT| Convergence limit for maximum step size                       0.0030000000
 OPT| Maximum step size is converged                                          NO
 OPT|
 OPT| RMS step size                                                 0.0023854346
 OPT| Convergence limit for RMS step size                           0.0015000000
 OPT| RMS step size is converged                                              NO
 OPT|
 OPT| Maximum gradient                                              0.0129183651
 OPT| Convergence limit for maximum gradient                        0.0010000000
 OPT| Maximum gradient is converged                                           NO
 OPT|
 OPT| RMS gradient                                                  0.0011451846
 OPT| Convergence limit for RMS gradient                            0.0005000000
 OPT| RMS gradient is converged                                               NO
 OPT| **************************************************************************
 OPT| Estimated peak process memory after this step [MiB]                  14706

 *** MAXIMUM NUMBER OF OPTIMIZATION STEPS REACHED ***
 ***        EXITING GEOMETRY OPTIMIZATION         ***

 -------------------------------------------------------------------------------
 -                                                                             -
 -                                DBCSR STATISTICS                             -
 -                                                                             -
 -------------------------------------------------------------------------------
 COUNTER                                    TOTAL       BLAS       SMM       ACC
 flops     9 x     9 x    32        1230771345408       0.0%      0.0%    100.0%     
 flops    14 x     9 x    32        4641292615680       0.0%      0.0%    100.0%     
 flops     9 x    14 x    32        4641292615680       0.0%      0.0%    100.0%     
 flops     9 x    32 x     9        7219148488704       0.0%      0.0%    100.0%     
 flops     9 x    13 x    32       13640454622080       0.0%      0.0%    100.0%     
 flops    13 x     9 x    32       14021568018432       0.0%      0.0%    100.0%     
 flops    14 x    14 x    32       17809355866624       0.0%      0.0%    100.0%     
 flops    14 x    32 x     9       28074466344960       0.0%      0.0%    100.0%     
 flops     9 x    32 x    14       28074466344960       0.0%      0.0%    100.0%     
 flops    32 x    32 x     9       37792273268736       0.0%      0.0%    100.0%     
 flops    14 x    13 x    32       41932525969152       0.0%      0.0%    100.0%     
 flops    13 x    14 x    32       44826356090880       0.0%      0.0%    100.0%     
 flops     9 x    32 x    32       47158863593472       0.0%      0.0%    100.0%     
 flops    13 x    32 x     9       85446950404608       0.0%      0.0%    100.0%     
 flops     9 x    32 x    13       85446950404608       0.0%      0.0%    100.0%     
 flops    13 x    13 x    32       95251660093824       0.0%      0.0%    100.0%     
 flops    14 x    32 x    14      107214564896768       0.0%      0.0%    100.0%     
 flops    32 x    32 x    14      146969951600640       0.0%      0.0%    100.0%     
 flops    14 x    32 x    32      183395580641280       0.0%      0.0%    100.0%     
 flops    14 x    32 x    13      288456204434944       0.0%      0.0%    100.0%     
 flops    13 x    32 x    14      288456204434944       0.0%      0.0%    100.0%     
 flops    32 x    32 x    32      296652367200256       0.0%      0.0%    100.0%     
 flops    32 x    32 x    13      469122836582400       0.0%      0.0%    100.0%     
 flops    13 x    32 x    32      585392143564800       0.0%      0.0%    100.0%     
 flops    13 x    32 x    13      735616646239488       0.0%      0.0%    100.0%     
 flops inhomo. stacks                           0       0.0%      0.0%      0.0%
 flops total                         3.658485E+15       0.0%      0.0%    100.0%
 flops max/rank                      3.658485E+15       0.0%      0.0%    100.0%
 matmuls inhomo. stacks                         0       0.0%      0.0%      0.0%
 matmuls total                       240288496734       0.0%      0.0%    100.0%
 number of processed stacks              16477327       0.0%      0.0%    100.0%
 average stack size                                     0.0       0.0   14583.0
 marketing flops                     4.650332E+15
 -------------------------------------------------------------------------------
 # multiplications                         230501
 max memory usage/rank              15.481934E+09
 # max total images/rank                        1
 # max 3D layers                                1
 # MPI messages exchanged                       0
 -------------------------------------------------------------------------------
 -                                                                             -
 -                      DBCSR MESSAGE PASSING PERFORMANCE                      -
 -                                                                             -
 -------------------------------------------------------------------------------
 ROUTINE             CALLS      AVE VOLUME [Bytes]
 MP_Bcast               26                     12.
 MP_Allreduce       831527                     13.
 MP_Alltoall        725746                4973494.
 MP_ISend           920956                 323922.
 MP_IRecv           920956                 323922.
 -------------------------------------------------------------------------------

 -------------------------------------------------------------------------------
 -                                                                             -
 -                                DBM STATISTICS                               -
 -                                                                             -
 -------------------------------------------------------------------------------
    M  x    N  x    K                                          COUNT     PERCENT
 -------------------------------------------------------------------------------

 -------------------------------------------------------------------------------
 -                                                                             -
 -                                GRID STATISTICS                              -
 -                                                                             -
 -------------------------------------------------------------------------------
 LP    KERNEL             BACKEND                              COUNT     PERCENT
 3     collocate ortho    GPU                             1618673182      15.24%
 2     collocate ortho    GPU                              181005511       1.70%
 2     integrate ortho    GPU                              177513681       1.67%
 5     integrate ortho    GPU                               68475196       0.64%
 0     collocate general  CPU                                  86301       0.00%
 1     integrate general  CPU                                  86301       0.00%
 4     collocate ortho    GPU                             3511093924      33.06%
 4     integrate ortho    GPU                             3473573974      32.70%
 3     integrate ortho    GPU                             1591209766      14.98%
 -------------------------------------------------------------------------------

 MEMORY| Estimated peak process memory [MiB]                               14706

 -------------------------------------------------------------------------------
 -                                                                             -
 -                         MESSAGE PASSING PERFORMANCE                         -
 -                                                                             -
 -------------------------------------------------------------------------------

 ROUTINE             CALLS      AVE VOLUME [Bytes]
 MP_Group                4
 MP_Bcast           299477                   6919.
 MP_Allreduce       755230                   6533.
 MP_Sync              4129
 -------------------------------------------------------------------------------


 -------------------------------------------------------------------------------
 -                                                                             -
 -                           R E F E R E N C E S                               -
 -                                                                             -
 -------------------------------------------------------------------------------
 
 CP2K version 2025.1, the CP2K developers group (2025).
 CP2K is freely available from https://www.cp2k.org/ .
 
 T. D. Kuehne, M. Iannuzzi, M. Del Ben, V. V. Rybkin, P. Seewald, F. Stein, T. 
 Laino, R. Z. Khaliullin, O. Schuett, F. Schiffmann, D. Golze, J. Wilhelm, S. 
 Chulkov, M. H. Bani-Hashemian, V. Weber, U. Borstnik, M. Taillefumier, A. S. 
 Jakobovits, A. Lazzaro, H. Pabst, T. Mueller, R. Schade, M. Guidon, S. 
 Andermatt, N. Holmberg, G. K. Schenter, A. Hehn, A. Bussy, F. Belleflamme, G. 
 Tabacchi, A. Gloess, M. Lass, I. Bethune, C. J. Mundy, C. Plessl, M. Watkins, 
 J. VandeVondele, M. Krack, J. Hutter.
 J. Chem. Phys. 152, 194103 (2020).
 CP2K: An electronic structure and molecular dynamics software package - 
 Quickstep: Efficient and accurate electronic structure calculations.
 https://doi.org/10.1063/5.0007045

 E. Caldeweyher, J. M. Mewes, S. Ehlert, S. Grimme.
 Phys. Chem. Chem. Phys. 22, 8499-8512 (2020).
 Extension and evaluation of the D4 London-dispersion model for periodic 
 systems.
 https://doi.org/10.1039/d0cp00502a

 E. Caldeweyher, S. Ehlert, A. Hansen, H. Neugebauer, S. Spicher, C. Bannwarth, 
 S. Grimme.
 J. Chem. Phys. 150, 154122 (2019).
 A generally applicable atomic-charge dependent London dispersion correction.
 https://doi.org/10.1063/1.5090222

 E. Caldeweyher, C. Bannwarth, S. Grimme.
 J. Chem. Phys. 147, 034112 (2017).
 Extension of the D3 dispersion coefficient model.
 https://doi.org/10.1063/1.4993215

 O. Schuett, P. Messmer, J. Hutter, J. VandeVondele.
 Electronic Structure Calculations on Graphics Processing Units, 173-190 (2016).
 GPU-Accelerated Sparse Matrix-Matrix Multiplication for Linear Scaling Density 
 Functional Theory.
 https://doi.org/10.1002/9781118670712.ch8

 A. Heinecke, G. Henry, M. Hutchinson, H. Pabst.
 Proceedings of Intl. Supercomputing Conference, 981-991 (2016).
 LIBXSMM: Accelerating Small Matrix Multiplications by Runtime Code Generation.
 https://doi.org/10.1109/SC.2016.83

 J. Hutter, M. Iannuzzi, F. Schiffmann, J. VandeVondele.
 WIREs Comput Mol Sci. 4, 15-25 (2014).
 CP2K: atomistic simulations of condensed matter systems.
 https://doi.org/10.1002/wcms.1159

 U. Borstnik, J. VandeVondele, V. Weber, J. Hutter.
 Parallel Comput. 40, 47-58 (2014).
 Sparse matrix multiplication: The distributed block-compressed sparse row 
 library.
 https://doi.org/10.1016/j.parco.2014.03.012

 A. Marek, V. Blum, R. Johanni, V. Havu, B. Lang, T. Auckenthaler, A. Heinecke, 
 H. Bungartz, H. Lederer.
 J. Phys. Condens. Matter 26, 213201 (2014).
 The ELPA library: scalable parallel eigenvalue solutions for electronic 
 structure theory and computational science.
 https://doi.org/10.1088/0953-8984/26/21/213201

 J. VandeVondele, J. Hutter.
 J. Chem. Phys. 127, 114105 (2007).
 Gaussian basis sets for accurate calculations on molecular systems in gas and 
 condensed phases.
 https://doi.org/10.1063/1.2770708

 T. D. Khne, M. Krack, F. R. Mohamed, M. Parrinello.
 Phys. Rev. Lett. 98, 066401 (2007).
 Efficient and accurate Car-Parrinello-like approach to Born-Oppenheimer 
 molecular dynamics.
 https://doi.org/10.1103/PhysRevLett.98.066401

 J. VandeVondele, M. Krack, F. Mohamed, M. Parrinello, T. Chassaing, J. Hutter.
 Comput. Phys. Commun. 167, 103-128 (2005).
 QUICKSTEP: Fast and accurate density functional calculations using a mixed 
 Gaussian and plane waves approach.
 https://doi.org/10.1016/j.cpc.2004.12.014

 M. Krack.
 Theor. Chem. Acc. 114, 145-152 (2005).
 Pseudopotentials for H to Kr optimized for gradient-corrected 
 exchange-correlation functionals.
 https://doi.org/10.1007/s00214-005-0655-y

 M. Frigo, S. G. Johnson.
 Proc. IEEE 93, 216-231 (2005).
 The design and implementation of FFTW3.
 https://doi.org/10.1109/JPROC.2004.840301

 J. Kolafa.
 J. Comput. Chem. 25, 335-342 (2004).
 Time-reversible always stable predictor-corrector method for molecular dynamics 
 of polarizable molecules.
 https://doi.org/10.1002/jcc.10385

 J. VandeVondele, J. Hutter.
 J. Chem. Phys. 118, 4365-4369 (2003).
 An efficient orbital transformation method for electronic structure 
 calculations.
 https://doi.org/10.1063/1.1543154

 C. Hartwigsen, S. Goedecker, J. Hutter.
 Phys. Rev. B 58, 3641-3662 (1998).
 Relativistic separable dual-space Gaussian pseudopotentials from H to Rn.
 https://doi.org/10.1103/PhysRevB.58.3641

 G. Lippert, J. Hutter, M. Parrinello.
 Mol. Phys. 92, 477-487 (1997).
 A hybrid Gaussian and plane wave density functional scheme.
 https://doi.org/10.1080/002689797170220

 S. Goedecker, M. Teter, J. Hutter.
 Phys. Rev. B 54, 1703-1710 (1996).
 Separable dual-space Gaussian pseudopotentials.
 https://doi.org/10.1103/PhysRevB.54.1703

 J. P. Perdew, K. Burke, M. Ernzerhof.
 Phys. Rev. Lett. 77, 3865-3868 (1996).
 Generalized gradient approximation made simple.
 https://doi.org/10.1103/PhysRevLett.77.3865

 R. H. Byrd, P. H. Lu, J. Nocedal, C. Y. Zhu.
 SIAM J. Sci. Comput. 16, 1190-1208 (1995).
 A Limited Memory Algorithm for Bound Constrained Optimization.
 https://doi.org/10.1137/0916069


 -------------------------------------------------------------------------------
 -                                                                             -
 -                                T I M I N G                                  -
 -                                                                             -
 -------------------------------------------------------------------------------
 SUBROUTINE                       CALLS  ASD         SELF TIME        TOTAL TIME
                                MAXIMUM       AVERAGE  MAXIMUM  AVERAGE  MAXIMUM
 CP2K                                 1  1.0      1.5      1.5 145466.5 145466.5
 cp_geo_opt                           1  2.0      0.0      0.0 145451.6 145451.6
 geoopt_lbfgs                         1  3.0      0.1      0.1 145451.6 145451.6
 cp_opt_gopt_step                   200  4.0      0.2      0.2 145450.6 145450.6
 cp_eval_at                         223  5.0      0.0      0.0 145439.5 145439.5
 qs_forces                          223  6.0      0.1      0.1 145439.4 145439.4
 qs_energies                        223  7.0      0.0      0.0 142444.6 142444.6
 scf_env_do_scf                     223  8.0      0.1      0.1 139555.7 139555.7
 scf_env_do_scf_inner_loop        11125  9.0     19.1     19.1 135387.8 135387.8
 rebuild_ks_matrix                11348 10.9      0.1      0.1  89644.0  89644.0
 qs_ks_build_kohn_sham_matrix     11348 11.9      3.7      3.7  89643.9  89643.9
 qs_ks_update_qs_env              11387 10.0      0.3      0.3  87461.9  87461.9
 sum_up_and_integrate             11348 12.9      0.7      0.7  51467.2  51467.2
 integrate_v_rspace               11348 13.9    143.5    143.5  51202.0  51202.0
 grid_integrate_task_list         11348 14.9  48558.9  48558.9  48558.9  48558.9
 qs_rho_update_rho_low            11348 10.0      0.1      0.1  34287.0  34287.0
 calculate_rho_elec               11348 11.0   1547.7   1547.7  34286.9  34286.9
 grid_collocate_task_list         11348 12.0  28338.9  28338.9  28338.9  28338.9
 qs_vxc_create                    11348 12.9      0.4      0.4  26632.1  26632.1
 xc_vxc_pw_create                 11348 13.9   1703.1   1703.1  26631.7  26631.7
 xc_rho_set_and_dset_create       11348 14.9   2322.2   2322.2  15868.7  15868.7
 fft_wrap_pw1pw2                 193139 15.3      7.8      7.8  15216.9  15216.9
 qs_scf_new_mos                   11125 10.0      0.1      0.1  15054.4  15054.4
 qs_scf_loop_do_ot                11125 11.0      0.1      0.1  15054.3  15054.3
 fft_wrap_pw1pw2_200             125051 16.7      0.9      0.9  14473.1  14473.1
 ot_scf_mini                      11125 12.0      0.6      0.6  14031.5  14031.5
 dbcsr_multiply_generic          230501 15.1     57.7     57.7  13662.1  13662.1
 xc_pw_derive                     68088 15.9      1.7      1.7  12179.0  12179.0
 xc_pw_divergence                 11348 14.9      0.9      0.9   8599.7   8599.7
 ot_mini                          11125 13.0      0.1      0.1   8178.9   8178.9
 multiply_cannon                 230501 16.1    443.3    443.3   8028.2   8028.2
 pw_poisson_solve                 11348 12.9      0.8      0.8   7710.9   7710.9
 pw_gpu_c1dr3d_3d                102132 17.6   7630.5   7630.5   7630.5   7630.5
 pw_gpu_r3dc1d_3d                 91007 16.8   7577.3   7577.3   7577.3   7577.3
 xc_functional_eval               11348 15.9      0.3      0.3   7055.8   7055.8
 pbe_lda_eval                     11348 16.9   7055.6   7055.6   7055.6   7055.6
 multiply_cannon_loop            230501 17.1    522.6    522.6   6836.4   6836.4
 multiply_cannon_multrec         230501 18.1   3740.6   3740.6   5523.6   5523.6
 qs_ot_get_derivative             11125 14.0      0.2      0.2   5385.7   5385.7
 pw_derive                       102132 16.3   5224.7   5224.7   5224.7   5224.7
 make_m2s                        461002 16.1      7.2      7.2   4728.6   4728.6
 make_images                     461002 17.1   1275.4   1275.4   4519.0   4519.0
 pw_integral_ab_c1d_c1d_gs        11348 13.9   4448.6   4448.6   4448.6   4448.6
 density_rs2pw                    11348 12.0      1.8      1.8   4400.3   4400.3
 init_scf_loop                      262  9.0      0.0      0.0   4088.8   4088.8
 qs_ot_get_p                      11387 13.0      0.1      0.1   3183.5   3183.5
 pw_copy                         170220 15.5   3180.0   3180.0   3180.0   3180.0
 -------------------------------------------------------------------------------

 The number of warnings for this run is : 0
 
 -------------------------------------------------------------------------------
  **** **** ******  **  PROGRAM ENDED AT                 2025-10-10 01:12:46.308
 ***** ** ***  *** **   PROGRAM RAN ON                              6377ac7c5298
 **    ****   ******    PROGRAM RAN BY                                 <unknown>
 ***** **    ** ** **   PROGRAM PROCESS ID                                   614
  **** **  *******  **  PROGRAM STOPPED IN                             /mnt/cp2k
