16.271768406200 10.088109835500 0.799132224000 11.118138074300 6.776341194100 4.122527665400 27.694497542100 8.301321418100 2.319668916400 22.517249833800 5.088451199900 5.636593638600 2.787312961700 5.100007280900 3.755122232600 19.335363926700 6.684466936700 2.169672550000 14.189780946900 3.460392857700 5.479044988100 25.760023254700 1.760353720500 7.064257515400 7.087425797600 12.185486281900 3.316735091600 2.128221355900 8.812875296300 6.479345081500 21.715925929000 2.322897657800 1.595632126400 18.556165665900 10.544534810500 4.921826348800 17.374074734800 2.595278533200 2.325045463800 14.126446762400 10.873544312100 5.574251402100 2.769258168900 12.465319923600 3.816967814900 25.620509341900 9.186221265500 7.114194497900 14.182074298500 6.060512935500 0.898248026000 9.139032274200 2.717545182200 4.131585976500 25.882289102900 4.275110688100 2.432788458600 20.562645274100 1.110000281900 5.801185554300 11.819116489300 10.337329566700 1.524762630200 6.757244206600 7.110715093600 4.810859654000 23.240733439800 8.706319263900 3.075002775400 18.139701583100 5.421908977200 6.376302393300 15.552557202500 1.468963557700 3.547162577800 12.254504856100 9.725339488900 6.804880475400 28.898931195700 11.278729307100 5.098199498300 23.741868194000 7.972641713100 8.424780098600 12.356621629200 4.771341655600 2.120961912800 7.361962921800 1.458515804400 5.472890087800 23.924365750800 3.092771063300 3.682729867000 22.545028185500 22.921667930000 6.998723853200 9.962564344800 9.167783913800 2.681129408900 4.959949825400 5.848887421700 5.907694596300 21.449356797900 7.539908061300 4.298916814700 16.396609438100 4.212858749300 7.574004432500 14.357841314900 8.888678299800 2.092459221900 9.291931621200 5.596084355300 5.364677491500 25.869872257800 7.187374783200 3.538049147500 20.726057788500 3.952383440700 6.897259733800 1.033098998800 3.827822787300 5.075171005200 17.543702320600 5.445619711600 3.419117573400 12.264219037100 2.263444184000 6.769729810000 23.874245451200 0.514670704700 8.310739888100 5.261831664100 10.943089008400 4.409887094100 28.207270058000 7.656936919400 7.655762872900 19.970329860800 1.113728468400 2.807130725200 16.758384006900 9.344967675100 6.102407513900 14.529771576800 11.438206473800 2.113040760300 9.404670612700 8.120741458300 5.453817283000 25.988676816300 9.752601349800 3.573450237100 20.874523672400 6.481232301200 6.986499248900 16.198757299100 9.917463617100 3.277710063200 11.148779149300 6.594863289700 6.670310990500 27.681799199700 8.329113790600 4.866706745300 22.624838423500 5.049191047700 8.198216334100 15.322551864000 10.066065228500 1.966982450000 10.283680331600 6.810965194000 5.408183025200 26.799556163500 8.453430216700 3.589039762800 21.663371947100 5.187696418000 6.968151982900 10.609202849700 4.630458495500 3.333545200000 5.628680500900 1.048076651700 6.672344814600 26.905204078800 6.146515326900 1.947693343700 22.128377128000 2.583279246700 5.148284731200 1.223591235100 3.510001305300 2.505959031200 17.871346553300 5.081734089400 0.894739264800 12.530838220400 1.936556092700 4.193859895800 24.162422589900 0.271640416500 5.790505679400 28.433975946300 5.739048264600 3.471265601600 16.989250447800 7.379024733500 1.941976360000 11.859934505500 4.160385723200 5.287574744500 23.435308509900 2.492632376800 6.782342163300 1.356262689700 4.495640499800 3.693117267400 17.899677534500 6.121416429400 2.030938241400 12.795036929800 2.878397565200 5.426697142000 24.277860665600 1.202972785500 7.084398574400 8.288382957400 7.829411914900 2.975534148300 2.996138753400 4.737920831500 6.315372847100 24.394534043300 9.528836465600 1.590360982700 19.528936723000 6.341104848800 4.759101255500 7.712083451100 10.478464354200 5.142464272500 2.759643243700 7.125091985900 8.343784028900 22.400012242300 0.613163190600 3.426275967900 19.229882073200 8.858471963100 6.757818325700 6.736253760000 9.649313573100 2.887320476200 1.727848078000 6.433415858700 6.121130410600 25.347350770700 22.816722523700 1.233687292800 18.206098032900 8.128452468100 4.520661669400 6.799140020800 10.825415515600 3.915096358300 1.737507177100 7.536016526000 7.330658556400 21.390747056800 0.985114622900 2.240734854700 18.258584438700 9.210626857900 5.658127279100 2.924766032000 1.620228681000 3.400470467900 19.378499058800 3.197691349600 1.571572024300 14.483923070500 -0.145729762400 4.840119356200 27.624258716700 9.867432776600 6.834803411000 17.232078078600 0.070381409400 2.258229296000 14.017536631600 8.308475690500 5.603413001800 2.650981564600 9.932009376600 3.762174616300 25.479269460300 6.617089208100 7.075977875500 15.490398194000 1.504488950100 1.001070976900 12.333304269700 9.725436488400 4.289987961100 28.850188632900 11.463646758500 2.555974462800 23.808904750800 8.105047736800 5.903812383600 16.434575976100 1.368404891600 2.236137399300 13.206648237800 9.611753686200 5.590237825300 29.716706045000 11.235475515200 3.814575756400 24.665770327600 7.996983261900 7.230667556000 4.556023290300 5.498217953600 2.585645041300 15.965591962300 3.961308672500 4.030857769100 11.219439427000 0.308224886400 7.393756507000 27.324807261900 2.096180380500 5.676516415100 13.934631859900 6.265864841900 3.415037490800 8.934877061100 3.062318381500 6.708168624200 25.587940303300 4.602928364900 4.999007479900 20.234314283300 1.472871499100 8.315935696400 14.658283902700 4.049571556100 2.403724228800 9.684212376400 0.803820908600 5.726943625200 26.232753053400 2.390854489500 3.856553252700 24.893818597700 22.181419349700 7.290241019800 13.817245165400 5.328647595700 2.124886251700 8.804595558000 2.061456712500 5.491999123500 25.296306752700 3.674459702600 3.748250391300 20.210515975700 0.436073802700 7.188832326600 7.166918228100 1.821082999000 2.808132622600 3.800569785300 10.131271891000 6.167592618200 18.598873514100 0.184182510400 4.417434923500 15.544596905900 8.616934079300 7.703182398500 9.315142707800 10.886974334600 0.837168514800 4.338375542300 7.572850119700 4.087405633700 20.785716362000 9.203520014800 2.424461525500 15.715083479600 5.920364424000 5.757583316100 10.337899978900 11.589865925200 3.057883322200 5.336308272100 8.388199480200 6.347170047700 21.821979622100 9.940179915100 4.654179810200 16.567283246700 6.763857552200 7.950455273100 10.305093251500 10.499064253000 1.867134900000 5.296041599300 7.239251542100 5.297392983600 21.734794183100 8.850578593300 3.535616608700 16.709286062100 5.579993894500 6.954781632300 12.393349490900 8.179299671500 2.424638096900 7.207911955000 4.925123674700 5.828575123800 23.556004208300 6.615338322900 4.198040244300 18.757950956500 3.378385784800 7.648107548800 13.609725392800 2.101086044400 1.630092381400 10.291478724100 10.326341095100 5.018145357500 24.633668645300 0.575158145400 3.722167810500 21.542486501200 8.715435242500 6.871740337900 4.510773266400 9.312666919100 2.543790689600 15.939180555900 7.643435260400 3.957718698500 10.782369891800 4.313580398400 7.070577817200 27.235431985700 6.244150353300 5.818267098700 1.819296508400 7.703159939000 4.246820707200 18.463581955000 9.336675820500 2.333815474400 13.482268219500 5.975742323300 5.500427588900 24.532819481700 4.476962234800 7.773516226100 10.920180634000 0.305679739500 3.441339928100 7.546317759400 8.739646547000 6.647231095900 27.336676360800 2.207729477300 2.129551662400 24.067104595800 10.411632044900 5.284184687000 3.896812961400 3.245262822300 4.582785388500 30.370903985000 22.206212056100 8.655796069800 20.288776234400 4.747706597700 3.125769797200 15.126643153500 1.297431161200 6.811923910200 5.270376911100 2.977773622500 4.986547134300 31.333797369500 22.446785707200 8.598919088800 21.913631051100 4.771609332100 3.132348464400 16.223662589200 1.372903031500 6.635148996100 6.746110232100 4.866334584900 2.890583795300 1.077973886300 1.178904811800 6.772203256900 17.980841660300 2.948664888500 4.962770221500 16.381719119300 22.147699414300 8.685329663500 7.726486951500 4.718707055800 3.171504685400 2.744615168700 1.269929748700 6.730140371000 18.914022018200 2.967024033500 4.867801887100 17.265719160500 22.501153045800 8.493841580300 6.432631548500 3.446351075600 4.452628578500 1.502689527300 0.197951608600 7.725520936000 23.018666432200 5.737667789600 2.216181345000 17.675494584600 1.787658851300 6.045840057900 4.785066853700 3.538278842100 4.288246350000 -0.342473773800 0.176417599100 7.769712454000 22.050969110500 5.505360484000 2.248704270900 16.663248747000 1.810468104000 6.020675623500 9.072827555500 5.860956772600 2.154480434500 3.515023068900 1.639341900800 6.302365474100 20.201258451200 3.765913035800 4.087220851200 15.199536451600 0.229016210100 7.639528029000 8.141988760600 5.538356989400 2.236374857800 2.545943656700 1.935991038900 5.947613551900 19.256748482400 3.607354993600 4.319611983700 14.129698898600 0.219740254800 7.787706028900 18.172709021900 21.598912598300 0.798214362000 13.020507248200 18.289644343200 4.122636415700 29.596418165900 19.812794575000 2.319744900200 24.424089130400 16.597574264200 5.641628755600 4.688568437100 16.612453126600 3.753769924500 21.236469765500 18.194084166500 2.170564967200 16.091409178700 14.972240762600 5.479324433000 27.660240747500 13.278332689300 7.063516307900 5.191307144900 0.681619850200 3.313632795400 4.030229966300 20.323979315700 6.479877716000 23.617928198500 13.834012642100 1.596012587700 20.457945464600 22.056327134900 4.921925957900 19.278188141800 14.104485002300 2.326456892600 16.028230096600 22.385240873400 5.574805516700 0.868896877100 0.954220753000 3.818138190100 27.522180638900 20.695698410600 7.115767541300 16.085789980700 17.574985754100 0.898956441400 11.043367669400 14.229912384900 4.137234759900 27.783970088200 15.785400791400 2.434763138800 22.464085069400 12.621951211100 5.800672114500 13.713489713200 21.852911559900 1.526749245100 8.659322835400 18.621576456700 4.811278895800 25.143001730200 20.217402378900 3.074713456100 20.042033757600 16.935016096300 6.377027915100 17.455554054100 12.980114816600 3.548228785600 14.156312814400 21.237169122000 6.804576889000 30.800185298200 22.789489811800 5.098099916300 25.644097916700 19.483569920500 8.425453252000 14.259237854200 16.285620724200 2.118979390900 9.265436450600 12.970338274400 5.482155740000 25.825915756500 14.604362871400 3.683574541900 20.644305607900 11.410694037900 6.999974199700 11.864085695300 20.684793362100 2.679805312300 6.861774278300 17.360495896000 5.907689109900 23.351443726100 19.050320011800 4.300931383100 18.299234787400 15.724253309000 7.573932187300 16.259090064400 20.400459284400 2.094480981300 11.193862126100 17.108296902000 5.364946072700 27.771956505800 18.698507882300 3.538140614100 22.627726769300 15.464132471800 6.896936893500 2.934233445500 15.339231520900 5.075005127200 19.444966356100 16.958070648400 3.421418295600 14.165490563700 13.774548073600 6.769693291800 25.773982849200 12.027209811200 8.309554136900 7.174568336200 22.456358982000 4.407922101900 30.109038458400 19.168733913900 7.655373884300 21.872140062000 12.624528705400 2.806636781500 18.660488358500 20.855846092000 6.101720847800 16.431638615300 22.951062546600 2.114789893200 11.306602435200 19.632987131300 5.454085450600 27.890808909600 21.264129370900 3.573817387000 22.776734788600 17.992493176100 6.985862690600 18.101805876200 21.428792753600 3.276263577900 13.051344064300 18.106368729300 6.669795351800 29.583518967700 19.840642206200 4.866948066400 24.527380591900 16.560441054600 8.198829993200 17.222816805900 21.578558269200 1.966650784300 12.185211276800 18.323456946100 5.408823041800 28.701049968200 19.965219769300 3.589109214200 23.566560755400 16.698772463400 6.970370828200 12.519628766300 16.150499233700 3.335300234000 7.525848575800 12.556113128000 6.687891569600 28.806892845500 17.658372071900 1.948020538700 24.031931060000 14.099231489700 5.151487104900 3.125041897200 15.021204826300 2.505717774300 19.771216992400 16.596252169000 0.892048495000 14.432428891500 13.447903965400 4.194149189000 26.064573742800 11.784527346600 5.791394346400 30.335445555800 17.250447477900 3.471545472200 18.895666963200 18.894678481600 1.943166826500 13.762137316800 15.671990357200 5.288354283200 25.336668270300 14.004643810400 6.782786577800 3.258637556200 16.008143136800 3.693499382600 19.800360290300 17.632442137100 2.029573839800 14.696690953300 14.390081527900 5.427110782300 26.180737703000 12.716221007100 7.085378632700 10.189996327300 19.340884617000 2.975345241600 4.897582505300 16.250755255700 6.316935010400 26.295416054200 21.040497909900 1.590386234300 21.430967491800 17.853501081600 4.758904352000 9.616192681200 21.992158819700 5.141424442100 4.660662054700 18.635143748400 8.344051559200 24.301673496200 12.123870278000 3.426011637000 21.130606567100 20.369922152800 6.758576699100 8.638700360000 21.165332737600 2.889415985900 3.629294055100 17.945469059000 6.120910350400 23.445689468700 11.305390244900 1.233438254200 20.108368340400 19.640549415700 4.520243118900 8.696202982500 22.335219530100 3.914827013100 3.639414320900 19.047198521900 7.330612619000 23.293581570000 12.496331925500 2.241264127900 20.160916456800 20.721984979900 5.658150224000 4.814421335100 13.133794354300 3.405504383700 21.278757334300 14.709361525700 1.572817410000 16.386458299600 11.365134890800 4.838602965700 29.524940401600 21.378932513700 6.834140744900 19.133823822700 11.580628679400 2.257698352600 15.919480369500 19.819758006300 5.603343110300 4.552822679900 21.442936639700 3.762768355900 27.380756420900 18.127772157400 7.076108171500 17.393132527100 13.015922054100 1.001885433400 14.234372092900 21.237689688600 4.289612253300 30.751996122000 22.975310997200 2.555869273900 25.711591379500 19.615203648900 5.903757700700 18.336193420600 12.879601065100 2.236974239300 15.107960298700 21.123898175400 5.590224764700 31.619214196100 22.747310653500 3.814131009800 26.567222433500 19.506741276400 7.228783109500 6.456004544400 17.023145940400 2.584031919300 17.867391101700 15.471940278400 4.028437865000 13.121437114300 11.819998397700 7.393654500200 29.223119471200 13.611864495400 5.680289712100 15.837001914400 17.778180160300 3.414384610200 10.837660747600 14.576832198700 6.711942774200 27.488727503400 16.113019528600 4.999532631200 22.133813820300 12.983002373600 8.315834668800 16.557759948200 15.560356635800 2.404231156800 11.588308119000 12.313191505800 5.728452778400 28.134477066000 13.902127397000 3.857879100300 22.990899171700 10.668251138500 7.288148193000 15.719481627700 16.838988388400 2.125669464800 10.705446007200 13.572519165300 5.490533504600 27.198185518000 15.187693402600 3.751566538500 22.112709648100 11.947529370000 7.188716941400 9.070314163600 13.326857640400 2.802342845100 5.703393157800 21.640456070200 6.164974843600 20.498804651400 11.695956956300 4.415998721400 17.445483929500 20.128262853900 7.703362974600 11.212346123800 22.405733317700 0.838492592000 6.240404492300 19.084332599800 4.087826831600 22.687237720900 20.716017615200 2.425047484800 17.617036400300 17.431863727700 5.757911113000 8.434538559400 0.083309227400 3.059995125600 7.238839194700 19.899255505500 6.347318425500 23.724280181900 21.451782924000 4.654907582700 18.468102588600 18.275027708000 7.950593953200 12.212064357600 22.011169795000 1.871033828200 7.197845846100 18.750766000800 5.297747828700 23.634487441300 20.361895870500 3.534817170200 18.610221566100 17.091492584800 6.954986124800 14.293883083700 19.691261328400 2.424284652700 9.109550551100 16.446504809800 5.838003788100 25.457809698300 18.125935169700 4.201998656000 20.659350703000 14.890558845600 7.645269312000 15.510953622900 13.612555463200 1.624463083000 12.188752896400 21.847234633000 5.011059184100 26.535914556600 12.086649891700 3.722256370800 23.443882688500 20.226884899200 6.869583838700 6.412092577400 20.825387780200 2.542960861000 17.841731628600 19.152531719800 3.958017484800 12.684154508000 15.825199182100 7.070824339600 29.136896844900 17.755687397200 5.818813219200 3.720813340500 19.215102973400 4.246731402000 20.366574080300 20.846318149100 2.333770458000 15.383958190300 17.486692347000 5.500540815900 26.430060104600 15.983893601200 7.755305888100 12.834833365600 11.812184124100 3.445607377700 9.448294285900 20.251525802900 6.647354434800 29.237537147400 13.720272685300 2.130258833200 25.967892091100 21.922193352900 5.283838728900 5.794788206800 14.757168445500 4.584453012900 28.464998704000 10.683997447900 8.658165544300 22.192155492800 16.257429497700 3.123553435900 17.028534606100 12.808570124500 6.809601724800 7.172840016800 14.483723896800 4.983624684600 29.421685131500 10.942818532700 8.603161870500 23.815820715700 16.282363667400 3.131568141500 18.124789128700 12.880614649000 6.631857252400 8.645344950800 16.381158978400 2.892850092600 2.978421956300 12.689397595600 6.769222813200 19.887316449900 14.460271055300 4.973606755500 14.478485809800 10.634060279000 8.686909930300 9.627367738200 16.232200550700 3.170399104000 4.649351631300 12.779929002100 6.727716643000 20.816951097500 14.475558105500 4.864545654700 15.359722325700 10.994414795600 8.495501135300 8.330591900700 14.959504566900 4.453438537200 3.398906394700 11.712268682700 7.725305014300 24.921262094100 17.248054956200 2.216629507900 19.577315413000 13.301160890100 6.048001795800 6.689071591300 15.052590260500 4.293603160800 1.580565053200 11.680648543900 7.761419219500 23.952924557700 17.017044890600 2.249854823600 18.566963591600 13.323784244700 6.021873718100 10.973762208900 17.372498757400 2.154222757400 5.416886685100 13.148328492500 6.299245683100 22.101196270100 15.279167118800 4.088020834700 17.101389727800 11.743581560100 7.646442428200 10.043277989800 17.050786803000 2.238289978700 4.449312064600 13.449888261200 5.946400074300 21.151037740500 15.121894070600 4.320402096000 16.036034988600 11.728042844300 7.784043397400 16.164687809400 10.126625852600 15.526117203000 15.523269346500 11.245948536800 15.566999461600 14.941355063500 12.245558530100 15.602591510400