-187623.953816451802
-187624.683544686559
-187626.069003628014
-187627.937013183982
-187630.086471441260
-187632.318962876278
-187634.480680053559
-187636.462784503034
-187638.207465716288
-187639.697550179291
-187640.944880178518
-187641.974467059568
-187642.811678882223
-187643.483448850719
-187644.028830474475
-187644.477373278089
-187644.851261561940
-187645.164974994375
-187645.429605562327
-187645.665569941746
-187645.869897465484
-187646.057207478094
-187646.270930222759
-187646.527077804349
-187646.813541591342
-187647.127348685375
-187647.479631727183
-187647.857313387096
-187648.250783528696
-187648.635380118852
-187648.956058577722
-187649.158326226752
-187649.212881654763
-187649.129544770753
-187648.992824072164
-187648.965552793670
-187649.249139575229
-187649.890916065313
-187650.757043196820
-187651.651367011626
-187652.371973908099
-187652.826496822003
-187653.082620022207
-187653.280682042649
-187653.563388590264
-187653.987581883586
-187654.526302404876
-187655.131206405378
-187655.742477706983
-187656.220592865575
-187656.500664044870
-187656.592074492772
-187656.443761770875
-187656.015080721321
-187655.332905472489
-187654.558638375427
-187654.051313453616
-187654.013484402123
-187654.470737434458
-187655.200736449711
-187655.923756479111
-187656.570780821115
-187656.996610253438
-187657.229348178749
-187657.488053358509
-187657.642260121123
-187657.831727887795
-187657.900039868866
-187657.989393761789
-187658.090990275115
-187658.039752540994
-187658.010635895102
-187658.068425858946
-187658.119706342201
-187658.187502422574
-187658.243940307060
-187658.220645646099
-187658.335738843743
-187658.299373928108
-187658.194945961208
-187658.075022796955
-187658.106979413569
-187658.342821260099
-187658.668701502000
-187659.183694429172
-187659.668906099629
-187660.273128590954
-187660.778587519191
-187661.249904348311
-187661.638436249137
-187662.017337795492
-187662.313028854755
-187662.661256338732
-187663.029733720032
-187663.310308799788
-187663.529872223618
-187663.828454628674
-187664.007684927637
-187664.269799421978
-187664.551522332447
-187664.928418590105
-187665.474582813331
-187666.102742644143
-187666.824402893340
-187667.717143141548
-187668.684610291821
-187669.577985708194
-187670.448495451128
-187671.336826121376
-187672.043260239443
-187672.649138462002
-187672.938939126849
-187673.139942126698
-187673.268125035160
-187673.649493266479
-187674.359775373858
-187675.336810428504
-187676.279764881765
-187677.289076776622
-187678.059858666558
-187678.529960235173
-187678.722026525968
-187678.788510010723
-187678.876827530796
-187679.210514746635
-187679.856400292134
-187680.804049879604
-187681.815384886606
-187682.615734451159
-187683.120455569850
-187683.395232284151
-187683.552862810553
-187683.515377411706
-187683.283349866833
-187682.954678036011
-187682.584203692735
-187682.225575908029
-187681.887056929641
-187681.744978390750
-187681.728333838866
-187681.926985965431
-187682.195748990547
-187682.535604755540
-187682.851185215608
-187683.222582378658
-187683.641776096745
-187684.028055166942
-187684.374270559405
-187684.691209085344
-187685.037749817158
-187685.362006736599
-187685.694856168237
-187686.034551522112
-187686.451666807290
-187686.957336433290
-187687.533124957990
-187688.151192711521
-187688.778120329109
-187689.400450038782
-187689.973734979896
-187690.456473543483
-187690.805220465641
-187691.044387652393
-187691.250129542401
-187691.585336786258
-187692.094195396232
-187692.736942788615
-187693.419841234456
-187693.910080453410
-187694.006197681971
-187693.725262459542
-187693.224052426027
-187692.811039937573
-187692.736005437997
-187693.007831757714
