0.195149317176 -0.015595798845 -0.269663492494 0.318543252954 0.320950834153 0.139754380766 -0.959968238696 0.414099338283 -0.426952798270 0.438756219638 -0.400085282234 -0.045292557033 0.698242770758 2.713630432461 -0.448123777671 0.131603468851 0.664434304054 -0.045764097392 0.088195530591 -0.090231330242 0.009536736634 1.099312785584 0.325001864629 0.234851781254 0.893494932069 1.172011761920 -0.672024201214 -0.976452610867 -0.170364909094 -0.247290265156 -0.245998028600 0.362865989795 -1.338101440324 0.010370802569 0.473526793225 -0.143831122276 0.218565898263 -1.118797121172 -0.081664928021 0.190636002314 -0.115936193332 -0.130988460924 0.844443421903 -0.314547758311 -0.048406677440 -0.311691776684 0.115847233155 -0.064912646879 -0.155052445841 0.706664676969 -0.685083863691 0.509198795654 0.299518630650 -0.723597449569 -0.191736948778 -1.282046758789 -0.175625900817 -1.630958856353 0.389010511562 0.484409759585 -0.820398463151 0.127482504363 0.044788106551 1.090166856663 0.354862659213 0.084799103034 -0.289637880384 -0.300862289273 0.217495290819 0.362836679216 0.173208549425 -0.062352342139 0.191758546047 -1.038736561656 -0.359565207283 -0.426997535469 0.209208110424 -0.155219567560 -0.448401456835 0.303044641817 0.568378910450 -0.234665633370 -0.174560949800 0.077849410614 -0.941938633397 -0.755157743482 -0.097370770090 0.464688882487 0.209637998908 1.166526055762 -0.955002409640 -0.807374796122 -0.085296354426 -1.859968062301 0.014271680607 1.565887829507 -0.212243555067 -0.062374453628 0.401627944258 0.057668820233 0.209288843070 0.121011037171 -0.349358441110 -0.519293461720 0.252563083955 0.172627480063 -0.561091889268 0.233255126059 -0.332169072394 -0.340436712403 0.071510612357 -0.040190973719 -0.304562621249 0.249481873672 -1.433730544989 0.156697437779 0.476761755489 -0.419688917018 -0.463879499145 -0.042079706257 0.843278197854 0.915557570120 -0.637450059926 -0.194784220497 -0.329891074805 0.516784579048 -0.356728766041 -0.536414439086 0.288645948703 -1.624091953463 -1.172152144165 3.396806023228 1.725539979283 -0.414004721679 -0.628581295948 -0.361249279993 -0.208294854506 -0.982967786816 -1.848698401992 -0.710640631227 -0.136892742711 -0.426575874515 0.084103876682 0.067928551136 0.298536983382 0.533282835177 0.084128559274 -0.085558092750 0.304444350494 0.434912934315 -1.066351240332 1.609647494708 -0.414356962842 -0.216320810797 0.748411168229 -0.094059703166 0.456395017224 -0.445578899551 0.266334942066 0.353036147376 -0.239189746866 0.327192444704 -0.685422220895 0.665118731773 0.101398660636 -1.003291844765 0.099745955387 -0.297119791202 0.425793230648 0.635136066889 -0.275633080307 -0.010987867378 0.241677546491 0.170478037642 2.563833321916 -1.386443325959 0.146096264348 0.903046581103 -0.161663781056 0.032013322328 -0.645235360941 0.221165283774 -0.046024293053 0.606423012852 2.106335301345 -1.605827349316 1.571726805269 0.450772528366 0.722299042365 -0.899290713294 0.807831938302 -0.327649072663 0.427155401216 0.759959536143 0.417145581561 0.482890237491 -0.176580808610 0.362117284492 -0.223663882033 -1.006387967448 -0.061201002048 1.783039106694 1.482132080222 -0.627361564507 -0.883899574278 -1.137703986942 0.282002731806 -0.108234196066 -0.214513325126 -0.168878297123 0.210360993177 0.029499811670 -0.883311305826 1.331498846860 -0.313467894894 1.105472635047 -1.750975904960 -3.029096074677 0.223438653377 0.471108927612 0.136641803022 -0.610916273108 -0.107971429301 0.600204028011 -0.516555750847 0.197568211230 2.133053693385 -3.917703339232 0.377417920670 -0.364283181974 0.186897103787 -0.349452029273 -0.798111110666 -0.802152885170 0.704185619096 -0.130555487116 0.262801731810 0.039245321898 0.110887574747 0.191283406143 0.519952692625 0.084064795910 0.596343259185 0.700682747860 -0.597212292125 1.106903711185 -0.991899285716 0.305240364098 -1.673851031277 0.006377364808 -0.239682884493 -0.153942243404 0.689442398130 -0.148785124257 -0.060118567528 -0.949680739876 0.714950828922 0.252155821180 0.908324027888 1.814826171925 1.863882824298 -0.066765383970 -0.152894775889 -0.289033156871 -3.214373897559 -1.242445596184 0.526871017583 0.599381274931 -0.047263564880 -1.513553534553 2.586175181794 0.712092790412 2.985486561912 0.558182942911 -0.163795225753 0.013030866119 0.109991802332 -1.385387116693 -0.192719110267 -0.330417122555 0.953719429056 -0.128766513388 -1.912342466467 9.204561905338 -2.756307663142 0.112627183290 -0.867449140672 0.134228565395 75.405950696052 48.825831052810 13.850009883881 0.336416535168 -0.664135541842 0.325611730350 1.005953450978 -1.808131018740 -0.523438594579 -0.592916492608 -0.324275785037 0.519491950900 1.639568967332 -0.855706911563 0.651822527785 -0.061848405878 -0.507674131353 -0.014779216413 -0.527507622778 0.880972115977 -0.518032078405 -0.405902660728 0.302184350628 -0.091517910370 -2.692610119718 12.916065839314 -0.282197621441 -0.211392005630 -0.065531768571 -0.047345325967 1.218344073158 -0.877671333465 -0.436685452981 -0.046363678699 -0.871762937912 -0.397516749964 1.436157152353 -0.661523300815 1.102914387190 1.346199901731 0.034969576987 0.846574352380 -0.883955110111 1.536182329567 0.084615526253 0.020277778089 0.446752351131 1.426115451017 0.263670250530 -0.011021805943 0.127365776270 -0.119891578762 0.454949028687 -0.172813113726 0.075880973871 -1.551377550506 -0.920747085169 -0.890302135899 -0.301930325615 -0.138260055486 -0.289373056737 -1.116378227118 -0.691352727937 2.106128070413 1.365699663939 0.543126561554 1.065241552116 -2.477149600110 1.195000511406 1.035372530002 -1.883723514813 -0.613846816733 -0.080253906490 0.120005221532 -0.222458034551 -1.143555304000 -0.719576243892 0.960275742659 0.190544471034 3.425860519793 1.052462139907 2.461390279090 0.540217100976 -0.561146910880 -2.079396822856 0.391499339628 2.153369009583 -0.780122128801 1.050186713421 -1.572942937165 1.153549182814 -1.566782573481 0.726415378866 -0.236026261275 0.052410399613 -0.128506317727 -0.909425488573 0.641482578457 -0.534644491524 0.202345835519 -0.596765434359 -0.290579932661 -0.289280497015 0.271489490110 0.032569194877 -0.516144888528 -0.031438423614 -0.683010525930 0.181523497736 0.395795139145 0.702138506590 -0.233871676648 0.053087628242 0.176771070260 -0.001437246786 0.271084284218 0.540424846129 -0.198303546795 -0.250345250184 0.119149558329 2.209570244010 -0.837097265344 0.538602448057 -0.165832053846 -0.221578202976 0.111643993360 0.094138378929 -0.032128507759 0.075940109249 0.438945967067 -0.030354446431 0.192390523256 -0.224910867169 0.077499740556 -0.196849844947 -0.188963242459 -0.646215979768 -1.215923636442 0.526462212147 -0.019155234356 0.783852799796 -0.270741299028 0.772152736783 -0.255042141828 0.134902194479 1.093417245548 0.962717776644 0.043086550338 0.102895557020 -0.297917347469 -2.617955562156 -0.350015100912 -2.813728114790 0.119421581066 -0.031931047020 0.094066388034 -1.297618389262 1.366140351057 1.898516615184 0.068755932202 0.157753132825 -0.206848865968 -0.882740006656 -0.007384723110 0.273891929103 1.028341076495 1.489259178774 -1.165660108146 0.490901281383 1.302886580075 0.739464242709 -0.148240050341 -0.037734541555 -0.271033890592 -0.186761349529 0.162982757087 0.210030349283 -0.107059201824 0.283102649829 -1.181502732915 -1.553817527608 3.765844718003 -0.321814210666 -0.052859314262 -0.178435088364 -1.016772139754 0.162188800365 0.138745994023 -1.757628892051 0.142731204253 -0.213591327456 0.117949367274 0.223815062911 -0.114954031843 0.961620943944 0.951886746571 1.175587652493 -0.457360723651 2.163129432211 1.616367330486 -1.897611072576 2.604689182968 4.132499485729 -3.849862205611 2.970795277234 -0.427378572989 0.184656644307 -0.037126732718 -0.480981450347 0.559753372852 -0.453310207396 0.622989660331 -0.393893551089 -4.735545097189 -1.902023600186 3.465813409340 0.791913723094 1.325238724366 -1.769631316820 1.345494390965 -0.107285458921 0.212810740471 -2.797606268195 1.745315363773 -1.423966522817 1.109584343563 -2.158804322115 0.330059739186 -2.264372283982 -0.126426809318 -0.060653871250 -1.548881009130 -3.316206046224 3.736540824410 1.146895167282 -3.281637047143 2.620305550640 0.278695778646 0.744377107036 0.119354218157 -3.224292700155 -1.390248044731 2.596090384844 -3.211498889767 0.927728659271 -0.872414969728 -1.393281432492 -1.633874487579 1.370538994709 0.163724777521 -2.462276281313 1.883711687737 0.064167541121 1.770471039182 -2.164525027122 1.355006959228 -0.793856448803 0.456788910261 -0.034739206125 1.354924169699 -1.687001196592 2.219299299177 2.232995566849 -2.942276598612 0.107853158546 0.143658344129 0.520549188608 -0.113662309508 1.103773649938 -0.930976991273 1.641273094648 -2.835235908732 2.007365304956 -4.400371947613 -2.407386823827 3.440861365318 0.034019811401 0.197097699313 -1.109144170665 0.693142730106 1.090122633685 -1.413918136611 0.515934058052 3.485950290964 -2.631389577284 2.835364463901 -0.922864131687 0.375940050451 -0.321647603168 0.989477820558 0.231450725711 0.294903500094 0.443034021432 0.080876627727 -0.847018124822 0.052982727224 -0.393977883280 0.257829217885 -0.280295519165 -0.028771675194 0.980579746002 2.653712410996 -0.451779886668 0.208982367548 0.929371594327 -0.100908094112 0.225947021829 0.284196911425 0.226735836344 1.340308475460 0.687087781660 -0.146123518044 -0.301523062840 1.503984916237 -0.539154721062 -0.470025978871 0.424954022507 -0.315640991466 -0.138979450210 0.737821821874 -0.319170087957 -0.030664007277 0.099658023652 -0.723690523511 0.307538416294 0.365049885001 -0.104510724160 2.969877393330 -2.098591137983 0.227739595101 -0.917861278743 -1.272441630805 0.190947620043 0.238534115506 1.257874273310 -0.171005628055 -0.293072874492 0.933724986559 -0.868446214560 0.041155651705 0.241354615907 -0.604781106237 -0.066744300922 -1.201335195899 -0.448719759433 -0.001703098875 0.099311953138 -0.444617306889 -0.605053128974 -0.003980068023 -0.467940299814 0.990928437082 0.293684282874 0.176577209066 -0.577112948611 -0.370103645792 0.444081488946 0.496848757708 0.163199243991 -0.013683926376 -0.583769021025 0.237124636636 0.294841793613 -1.078487362477 0.407012863165 -1.526870821588 0.268604197904 -0.195132347894 0.895641289166 -0.422071815625 0.128941862638 0.154899208080 -0.880033663245 -0.369448014432 -0.160113919942 -0.069728837719 -1.169167093148 0.478209286689 -0.770728859735 -0.615553515153 -0.093654497274 -0.162186743482 -0.286814294659 -0.034625563356 -0.432164424809 -0.619856513759 0.568250869502 -0.018662610949 0.118539178388 0.165730752373 -0.709743316149 -0.532594807914 0.110286964999 0.074270948939 -0.570496985409 0.244472850079 -0.126664379270 0.522227090669 -0.188098837504 -0.234437319390 -0.274373753875 0.250965400318 -1.417090878175 -0.304125019455 0.516068269648 -0.340670682810 -0.210996569931 -0.054274963780 0.846190229536 0.727434050023 -0.635166405909 -0.105791647860 0.056634208236 0.150233683897 -0.172951439088 0.089098502096 0.411800771867 0.008414707122 -0.972908087755 1.388388108551 -0.421769968089 -3.478231324415 2.801044347626 -0.416027665814 -0.066477420392 -1.052968647271 -0.755241561452 0.043275269326 0.181342492059 -0.015242529241 -0.099528954262 0.286551527895 -74.395101864251 -50.395752943510 -12.841270385287 -0.068319873070 0.606624587356 0.170732062656 -1.476349668734 1.289005707181 0.063685716349 -0.424123556117 0.792454683243 -0.065750312358 -0.136036565288 1.555950514967 0.214427964494 0.210281803193 -0.172516408397 0.249621227474 -0.612980869117 0.304518912491 0.381290002351 -1.030326996741 0.318303626120 -0.217189329517 1.915251412824 -11.315285051701 -1.416397708705 0.285187814665 0.097822255843 0.349799642449 2.153817410011 -0.241786047053 0.148446767053 0.875334714719 -0.526711094953 -0.048783086973 -0.393909491930 -0.066271732122 -0.048626249668 0.137319545871 -0.166714456524 -0.985241670640 1.420291387654 0.631103034137 0.689725733722 -1.100642560249 0.895760588362 -0.570648166288 0.475470547375 0.500288379801 0.375121411136 0.293900255558 0.056678431214 0.361406631520 0.090065751185 0.417421203842 0.766764218332 -0.063495454699 -0.103039538809 -0.013111598765 -0.764435312896 -1.115505594633 0.277216365765 -0.055575942087 0.222984596522 -0.240487639849 -0.156575053259 0.634640872379 -0.750319955374 1.032233212782 0.066873370312 0.864401868953 -2.005282711223 -2.691827990072 0.238861674076 0.275708156526 -0.248082679215 -0.149467495092 -0.374660669412 -0.847848591212 -1.393098369932 -0.395812622648 1.448927822811 -1.138267572801 0.068527618222 -0.459983763313 0.305071699717 -0.413706987909 -0.795101891277 -0.793836394197 1.022901135977 0.268825312794 -0.414732343934 0.076928955607 -0.077603098911 0.147445579399 1.795898737328 -1.114583082742 -1.855279398188 0.681007636402 -0.583130358947 1.126738745273 0.338019361011 0.116161421988 0.451712523760 0.397022583895 -0.298782266644 0.137177106745 1.598073415761 -2.559474787477 -0.494808844291 -0.822688802037 0.846311585615 0.226548660018 -0.167199366620 0.612477447076 -0.140799791398 0.023446405887 -0.391547162150 -0.713513067916 -7.433305136965 -7.922368079436 5.516732177007 0.153176568819 -0.412198778670 -1.209864574231 0.326147034072 -0.420085381158 -0.286932565415 -0.883254741552 1.102751379237 -0.486998346462 -1.424910631976 -0.352743555812 0.308947380942 -0.056959195702 -0.117319961168 0.029513181407 0.056416178670 0.826259550402 0.006299203266 1.264877958900 -1.496920552608 -0.477721291269 0.137033124956 -0.641901154086 0.119062140814 0.163219812818 -0.402472808827 0.028127870910 0.707920403857 -2.176396839840 -0.012724390597 -0.721774537277 -0.037602386842 0.613576850879 0.914271504212 -0.304320423311 0.234650206749 -0.691879804129 -1.740891523308 -0.767700099960 1.590724173877 -0.118329890573 0.975433425489 -0.464279048610 0.570372029785 -0.220119358922 -0.388357965526 0.032802651064 -0.270339178461 2.181266509630 -4.150952294643 3.347072142227 -0.815221289398 2.107479956567 -1.485779447468 -0.306810279818 -1.280783318591 -0.553783270818 1.428318372387 -0.586103582888 1.227121305855 1.069404682699 -0.645202450818 0.605696933259 0.057352060298 0.108800353028 -0.200661762809 -0.448220451157 -0.284425225404 1.627152594919 0.184018496450 0.320103912702 0.154130962392 -0.363890831600 -0.018451266252 -0.529882808075 0.255107962074 -1.263986300250 -0.763786880625 -0.423510090852 0.119350104392 -0.248120731545 -0.337727797888 -0.276464060918 -0.786149309330 0.342600553002 0.052354349560 -0.206071364308 0.519220956605 -1.735899468997 0.818155946789 -0.293773243051 0.213644806406 0.160619398866 0.092558178795 -0.683915554318 0.073279531478 0.226631963768 -0.341540744192 0.932358188006 0.260114414564 2.772232563219 1.200821489445 -0.588458199358 0.108277390602 0.101397632195 -0.339962600941 0.601256637732 1.121698354219 0.183601977704 -1.847195849181 -2.960033666953 -0.043419765336 0.104452103003 -0.254993805084 -0.519484237590 0.826548028201 -0.109888443976 -1.491210132014 0.800816939856 -0.748168970292 0.198669671915 -0.753366712872 -0.216638599174 -0.973201707761 0.398902060462 -0.718723666013 -0.362115741830 -0.040085558480 -0.645566004835 4.295877164294 8.968597864765 -6.477413639779 -0.531748400683 0.229723458464 0.336943097139 0.664586513374 0.650478869162 -0.127746299569 -0.057236360646 -0.610070894318 0.081459239751 3.635962859971 0.225265165214 1.614750620685 -0.100582592425 -0.190012252635 -0.178937996183 0.515320592787 0.503186527524 0.990709379074 0.165806857033 0.306953233166 0.178381609413 -0.164711052775 -0.133686576804 -0.124032597856 -0.087062188223 -0.585755969712 -1.292335800270 0.591768237842 -0.111699529193 0.585714317838 -0.016494656584 0.148582007090 -0.032890068579 -0.072713888736 0.134863113708 1.067123085565 -0.197341954133 -4.413150331381 0.128037348471 -0.585251519230 -0.417062792032 -0.292050603790 0.090421591892 0.434054700009 -0.033903597528 -1.030005608819 2.332920985252 2.211166384985 -0.001035126218 0.051064684107 0.135169075010 -0.435767569077 -0.135061088668 0.139947727740 0.981978940458 1.551342069280 -1.243231839596 0.417359497361 1.341245385530 0.625286684085 0.025795880149 -1.072751230850 0.541420377355 -0.206517193633 -0.108542728470 0.234240887092 -0.077845811070 -0.170405532527 -1.206171955566 0.029609340674 -0.017861969359 -0.018878583633 0.159165697018 0.140808018929 -1.013222474436 0.328585982732 0.868547001812 -1.075821642499 -0.241365928762 -3.086664107658 1.296175486049 0.454616842131 -0.406714100953 0.723396903505 1.329864653556 0.311791535495 -0.081712236323 2.227312914173 1.630636954211 -1.696428404223 3.050651176922 3.330840766628 -3.087152617299 3.023205676847 -0.352026217971 0.332847329464 -0.700811817249 -0.158125942814 0.331967497890 -0.518340610809 0.511314813730 -0.449742030134 -4.933914978451 -1.871025863691 3.375462779901 0.683324714763 1.285185047567 -1.878253749495 0.858145346003 1.089169782775 -1.335406923988 -3.935426983229 1.066106985512 -0.335264166636 0.098733969099 -0.587342340494 -0.471914197188 -2.257098632538 -0.107087483961 -0.069430075507 -1.758693328847 -3.077209646332 3.863235542699 1.401555757369 -3.662659140522 2.636734386978 0.010028845820 -0.099114492399 1.057614631068 -3.384749091067 -1.741852601749 2.543097373207 -1.849932017391 -0.635274906471 1.062193766177 -1.408897800164 -1.577970986922 1.394120126412 1.626242938545 -1.000131958719 0.637741108827 -0.085857369183 1.873596452844 -2.037894586417 1.934354196670 -0.425955724381 0.317686561310 -0.006265264701 1.286955509350 -1.694934078942 1.980681879922 2.241266292182 -3.138910985097 0.066738130274 0.272110668685 0.551655939886 0.232523904259 1.426418841215 -0.891201507860 1.196642418021 -2.452920550356 2.084334369775 -3.349291518659 -3.130509647712 2.922732099205 0.054722849988 0.211016624537 -1.130678189862 0.552160390368 1.102604312124 -1.388364968620 0.889742149585 3.535951052495 -2.802342754830 2.933139925663 -0.080724932628 -0.072634698752 -3.738819850440 6.452371607138 0.098421322929 4.460459147680 -7.754648321493 -0.258824234891 -0.808358500273 1.239900203844 -0.057076438016