 DBCSR| CPU Multiplication driver                                           XSMM (U)
 DBCSR| Multrec recursion limit                                              512 (U)
 DBCSR| Multiplication stack size                                          50000 (U)
 DBCSR| Maximum elements for images                                    UNLIMITED (U)
 DBCSR| Multiplicative factor virtual images                                   1 (U)
 DBCSR| Use multiplication densification                                       F (D)
 DBCSR| Multiplication size stacks                                             3 (U)
 DBCSR| Use memory pool for CPU allocation                                     T (U)
 DBCSR| Number of 3D layers                                               SINGLE (U)
 DBCSR| Use MPI memory allocation                                              F (U)
 DBCSR| Use RMA algorithm                                                      F (U)
 DBCSR| Use Communication thread                                               T (U)
 DBCSR| Communication thread load                                             30 (D)
 DBCSR| MPI: My process id                                                     0
 DBCSR| MPI: Number of processes                                               1
 DBCSR| OMP: Current number of threads                                        16
 DBCSR| OMP: Max number of threads                                            16
 DBCSR| ACC: Number of devices/node                                            1
 DBCSR| ACC: Number of stack-buffers per thread                              128 (U)
 DBCSR| ACC: Avoid driver after busy                                           F (U)
 DBCSR| ACC: Process inhomogeneous stacks                                      T (U)
 DBCSR| ACC: Min. flop for processing                                        500 (U)
 DBCSR| ACC: Use G2G algorithm                                                 F (D)
 DBCSR| ACC: Min. flop for sorting                                           100 (U)
 DBCSR| ACC: Number of binning bins                                        16384 (U)
 DBCSR| ACC: Size of binning bins                                             16 (U)
 DBCSR| ACC: GPU backend is enabled                                            T (D)
 DBCSR| Split modifier for TAS multiplication algorithm                  1.0E+00 (U)


  **** **** ******  **  PROGRAM STARTED AT               2025-11-18 03:39:09.747
 ***** ** ***  *** **   PROGRAM STARTED ON                          4838f1d24d69
 **    ****   ******    PROGRAM STARTED BY                             <unknown>
 ***** **    ** ** **   PROGRAM PROCESS ID                                   638
  **** **  *******  **  PROGRAM STARTED IN                             /mnt/cp2k

 CP2K| version string:                 CP2K version 2025.2 (Development Version)
 CP2K| source code revision number:                                  git:e68414f
 CP2K| cp2kflags: omp libint fftw3 libxc libgrpp elpa elpa_nvidia_gpu parallel s
 CP2K|            calapack cosma ace deepmd xsmm dbcsr_acc plumed2 spglib libdft
 CP2K|            td4 mctc-lib tblite sirius libvori libbqb libtorch offload_cud
 CP2K|            da spla_gemm_offloading libvdwxc hdf5 trexio libsmeagol greenx
 CP2K| is freely available from                            https://www.cp2k.org/
 CP2K| Program compiled at                          Sun Nov  2 00:48:36 UTC 2025
 CP2K| Program compiled on                                       buildkitsandbox
 CP2K| Program compiled for                                           local_cuda
 CP2K| Data directory path                                        /opt/cp2k/data
 CP2K| Input file name                                            HAP_300_md.inp

 GLOBAL| Force Environment number                                              1
 GLOBAL| Basis set file name                                        BASIS_MOLOPT
 GLOBAL| Potential file name                                      GTH_POTENTIALS
 GLOBAL| MM Potential file name                                     MM_POTENTIAL
 GLOBAL| Coordinate file name                                      __STD_INPUT__
 GLOBAL| Method name                                                        CP2K
 GLOBAL| Project name                                                 HAP_300_md
 GLOBAL| Run type                                                             MD
 GLOBAL| FFT library                                                       FFTW3
 GLOBAL| Diagonalization library                                            ELPA
 GLOBAL| Cholesky decomposition library                                ScaLAPACK
 GLOBAL| DGEMM library                                                      SPLA
 GLOBAL| Minimum number of eigenvectors for ELPA usage                        16
 GLOBAL| Orthonormality check for eigenvectors enabled                 1.000E-12
 GLOBAL| Matrix multiplication library                                     COSMA
 GLOBAL| All-to-all communication in single precision                          F
 GLOBAL| FFTs using library dependent lengths                                  F
 GLOBAL| Grid backend                                                       AUTO
 GLOBAL| Global print level                                                  LOW
 GLOBAL| MPI I/O enabled                                                       T
 GLOBAL| Total number of message passing processes                             1
 GLOBAL| Number of distributed systems (nodes)                                 1
 GLOBAL| Number of threads for this process                                   16
 GLOBAL| This output is from process                                           0
 GLOBAL| OpenMP stack size per thread (OMP_STACKSIZE)                        16M
 GLOBAL| CPU model name                           Intel(R) Core(TM) Ultra 7 265K
 GLOBAL| CPUID                                                              1002

 MEMORY| system memory details [Kb]
 MEMORY|                        rank 0           min           max       average
 MEMORY| MemTotal             49330324      49330324      49330324      49330324
 MEMORY| MemFree              46777656      46777656      46777656      46777656
 MEMORY| Buffers                 50056         50056         50056         50056
 MEMORY| Cached                1402580       1402580       1402580       1402580
 MEMORY| Slab                   173460        173460        173460        173460
 MEMORY| SReclaimable            79904         79904         79904         79904
 MEMORY| MemLikelyFree        48310196      48310196      48310196      48310196


 GENERATE|  Preliminary Number of Bonds generated:                             0
 GENERATE|  Achieved consistency in connectivity generation.

 *******************************************************************************
 *******************************************************************************
 **                                                                           **
 **     #####                         ##              ##                      **
 **    ##   ##            ##          ##              ##                      **
 **   ##     ##                       ##            ######                    **
 **   ##     ##  ##   ##  ##   #####  ##  ##   ####   ##    #####    #####    **
 **   ##     ##  ##   ##  ##  ##      ## ##   ##      ##   ##   ##  ##   ##   **
 **   ##  ## ##  ##   ##  ##  ##      ####     ###    ##   ######   ######    **
 **    ##  ###   ##   ##  ##  ##      ## ##      ##   ##   ##       ##        **
 **     #######   #####   ##   #####  ##  ##  ####    ##    #####   ##        **
 **           ##                                                    ##        **
 **                                                                           **
 **                                                ... make the atoms dance   **
 **                                                                           **
 **            Copyright (C) by CP2K developers group (2000-2025)             **
 **                      J. Chem. Phys. 152, 194103 (2020)                    **
 **                                                                           **
 *******************************************************************************


 TOTAL NUMBERS AND MAXIMUM NUMBERS

  Total number of            - Atomic kinds:                                   5
                             - Atoms:                                        387
                             - Shell sets:                                   387
                             - Shells:                                      2013
                             - Primitive Cartesian functions:               2067
                             - Cartesian basis functions:                   5256
                             - Spherical basis functions:                   4917

  Maximum angular momentum of- Orbital basis functions:                        2
                             - Local part of the GTH pseudopotential:          2
                             - Non-local part of the GTH pseudopotential:      3


 SCF PARAMETERS         Density guess:                                    ATOMIC
                        --------------------------------------------------------
                        max_scf:                                             100
                        max_scf_history:                                       0
                        max_diis:                                              4
                        --------------------------------------------------------
                        eps_scf:                                        1.00E-05
                        eps_scf_history:                                0.00E+00
                        eps_diis:                                       0.00E+00
                        eps_eigval:                                     1.00E-05
                        --------------------------------------------------------
                        level_shift [a.u.]:                             0.000000
                        --------------------------------------------------------
                        Outer loop SCF in use 
                        No variables optimised in outer loop
                        eps_scf                                         1.00E-05
                        max_scf                                               50
                        No outer loop optimization
                        step_size                                       5.00E-01

 MD_PAR| Molecular dynamics protocol (MD input parameters)
 MD_PAR| Ensemble type                                                       NVT
 MD_PAR| Number of time steps                                                200
 MD_PAR| Time step [fs]                                                 0.250000
 MD_PAR| Temperature [K]                                              973.000000
 MD_PAR| Temperature tolerance [K]                                      0.000000
 MD_PAR| Print MD information every                                    1 step(s)
 MD_PAR| File type   Print frequency [steps]                          File names
 MD_PAR| Coordinates          1                               HAP_300_md-pos.xyz
 MD_PAR| Velocities           1                             HAP_300_md-vel-1.xyz
 MD_PAR| Energies             1                                HAP_300_md-1.ener
 MD_PAR| Dump                20                             HAP_300_md-1.restart

 ROT| Rotational analysis information
 ROT| Principal axes and moments of inertia [a.u.]
 ROT|                           1                   2                   3
 ROT| Eigenvalues      2.09945354700E+09   2.38877757271E+09   3.34503573880E+09
 ROT|      x             -0.113794200058      0.993185302152      0.025176092275
 ROT|      y             -0.993489167207     -0.113895983856      0.002641875087
 ROT|      z              0.005491327306     -0.024711544886      0.999679541090
 ROT| Number of rotovibrational vectors                                        6

 DOF| Calculation of degrees of freedom
 DOF| Number of atoms                                                        387
 DOF| Number of intramolecular constraints                                     0
 DOF| Number of intermolecular constraints                                     0
 DOF| Invariants (translations + rotations)                                    3
 DOF| Degrees of freedom                                                    1158

 DOF| Restraints information
 DOF| Number of intramolecular restraints                                      0
 DOF| Number of intermolecular restraints                                      0

 THERMOSTAT| Thermostat information for PARTICLES
 THERMOSTAT| Type of thermostat            Canonical Sampling/Velocity Rescaling
 THERMOSTAT| CSVR time constant [fs]                                    1.000000
 THERMOSTAT| Initial kinetic energy                           0.000000000000E+00
 THERMOSTAT| End of thermostat information for PARTICLES

 MD_VEL| Velocities initialization
 MD_VEL| Initial temperature [K]                                      973.000000
 MD_VEL| COM velocity            -0.0000000000     0.0000000000     0.0000000000

 Extrapolation method: initial_guess

 Number of electrons:                                                       2350
 Number of occupied orbitals:                                               1175
 Number of molecular orbitals:                                              1175

 Number of orbital functions:                                               4917
 Number of independent orbital functions:                                   4917


 SCF WAVEFUNCTION OPTIMIZATION

  ----------------------------------- OT ---------------------------------------
  Minimizer      : DIIS                : direct inversion
                                         in the iterative subspace
                                         using   7 DIIS vectors
                                         safer DIIS on
  Preconditioner : FULL_SINGLE_INVERSE : inversion of 
                                         H + eS - 2*(Sc)(c^T*H*c+const)(Sc)^T
  Precond_solver : DEFAULT
  stepsize       :    0.08000000                  energy_gap     :    0.08000000
  eps_taylor     :   0.10000E-15                  max_taylor     :             4
  ----------------------------------- OT ---------------------------------------

  Step     Update method      Time    Convergence         Total energy    Change
  ------------------------------------------------------------------------------
     1 OT DIIS     0.80E-01   27.7     0.01771636     -6500.1520706765 -6.50E+03
     2 OT DIIS     0.80E-01   10.7     0.01434763     -6572.2006844081 -7.20E+01
     3 OT DIIS     0.80E-01   10.6     0.00930764     -6600.6100762218 -2.84E+01
     4 OT DIIS     0.80E-01   10.6     0.00627419     -6623.9412515873 -2.33E+01
     5 OT DIIS     0.80E-01   10.8     0.00562403     -6640.3681172877 -1.64E+01
     6 OT DIIS     0.80E-01   10.7     0.00386397     -6651.0896478212 -1.07E+01
     7 OT DIIS     0.80E-01   10.6     0.00287574     -6661.5618751089 -1.05E+01
     8 OT DIIS     0.80E-01   10.6     0.00225185     -6668.4815022541 -6.92E+00
     9 OT DIIS     0.80E-01   10.6     0.00180685     -6672.9301217583 -4.45E+00
    10 OT DIIS     0.80E-01   10.6     0.00145971     -6675.9050866470 -2.97E+00
    11 OT DIIS     0.80E-01   10.6     0.00117275     -6678.3225706981 -2.42E+00
    12 OT DIIS     0.80E-01   10.6     0.00099705     -6679.6157648680 -1.29E+00
    13 OT DIIS     0.80E-01   11.0     0.00080252     -6680.8878985388 -1.27E+00
    14 OT DIIS     0.80E-01   10.7     0.00070484     -6681.6443172501 -7.56E-01
    15 OT DIIS     0.80E-01   10.8     0.00059912     -6682.2249771262 -5.81E-01
    16 OT DIIS     0.80E-01   10.8     0.00052141     -6682.6758842686 -4.51E-01
    17 OT DIIS     0.80E-01   10.6     0.00045658     -6683.0628520375 -3.87E-01
    18 OT DIIS     0.80E-01   10.8     0.00039766     -6683.3875436236 -3.25E-01
    19 OT DIIS     0.80E-01   10.8     0.00035307     -6683.5913521346 -2.04E-01
    20 OT DIIS     0.80E-01   10.7     0.00031430     -6683.7808300539 -1.89E-01
    21 OT DIIS     0.80E-01   10.7     0.00028303     -6683.9184455104 -1.38E-01
    22 OT DIIS     0.80E-01   10.7     0.00025080     -6684.0564501778 -1.38E-01
    23 OT DIIS     0.80E-01   10.7     0.00022942     -6684.1434344663 -8.70E-02
    24 OT DIIS     0.80E-01   10.7     0.00020531     -6684.2358512414 -9.24E-02
    25 OT DIIS     0.80E-01   10.7     0.00018664     -6684.3077888285 -7.19E-02
    26 OT DIIS     0.80E-01   10.6     0.00016907     -6684.3728750843 -6.51E-02
    27 OT DIIS     0.80E-01   10.9     0.00015677     -6684.4188703344 -4.60E-02
    28 OT DIIS     0.80E-01   10.7     0.00014075     -6684.4696449747 -5.08E-02
    29 OT DIIS     0.80E-01   11.0     0.00012968     -6684.5043260996 -3.47E-02
    30 OT DIIS     0.80E-01   10.3     0.00011864     -6684.5350715717 -3.07E-02
    31 OT DIIS     0.80E-01   10.5     0.00011038     -6684.5592142275 -2.41E-02
    32 OT DIIS     0.80E-01   10.4     0.00010085     -6684.5831580499 -2.39E-02
    33 OT DIIS     0.80E-01   10.6     0.00009345     -6684.6014371542 -1.83E-02
    34 OT DIIS     0.80E-01   10.6     0.00008721     -6684.6179684740 -1.65E-02
    35 OT DIIS     0.80E-01   10.7     0.00008230     -6684.6311267931 -1.32E-02
    36 OT DIIS     0.80E-01   10.7     0.00007682     -6684.6440696749 -1.29E-02
    37 OT DIIS     0.80E-01   10.7     0.00007279     -6684.6542919893 -1.02E-02
    38 OT DIIS     0.80E-01   10.7     0.00006868     -6684.6644259909 -1.01E-02
    39 OT DIIS     0.80E-01   10.7     0.00006502     -6684.6734581197 -9.03E-03
    40 OT DIIS     0.80E-01   10.6     0.00006105     -6684.6819451151 -8.49E-03
    41 OT DIIS     0.80E-01   10.7     0.00005787     -6684.6888209284 -6.88E-03
    42 OT DIIS     0.80E-01   10.6     0.00005485     -6684.6957298445 -6.91E-03
    43 OT DIIS     0.80E-01   10.8     0.00005239     -6684.7014484449 -5.72E-03
    44 OT DIIS     0.80E-01   10.6     0.00004989     -6684.7067395326 -5.29E-03
    45 OT DIIS     0.80E-01   10.8     0.00004783     -6684.7113391587 -4.60E-03
    46 OT DIIS     0.80E-01   10.5     0.00004578     -6684.7158598458 -4.52E-03
    47 OT DIIS     0.80E-01   10.8     0.00004395     -6684.7198192835 -3.96E-03
    48 OT DIIS     0.80E-01   10.7     0.00004213     -6684.7234346569 -3.62E-03
    49 OT DIIS     0.80E-01   10.7     0.00004055     -6684.7266856905 -3.25E-03
    50 OT DIIS     0.80E-01   10.6     0.00003898     -6684.7300302148 -3.34E-03
    51 OT DIIS     0.80E-01   10.5     0.00003771     -6684.7327672640 -2.74E-03
    52 OT DIIS     0.80E-01   10.5     0.00003649     -6684.7353073487 -2.54E-03
    53 OT DIIS     0.80E-01   10.5     0.00003538     -6684.7377451595 -2.44E-03
    54 OT DIIS     0.80E-01   10.7     0.00003426     -6684.7401517364 -2.41E-03
    55 OT DIIS     0.80E-01   10.6     0.00003328     -6684.7423009282 -2.15E-03
    56 OT DIIS     0.80E-01   10.4     0.00003231     -6684.7442737199 -1.97E-03
    57 OT DIIS     0.80E-01   10.5     0.00003140     -6684.7461846120 -1.91E-03
    58 OT DIIS     0.80E-01   10.5     0.00003049     -6684.7481499671 -1.97E-03
    59 OT DIIS     0.80E-01   10.6     0.00002974     -6684.7498116336 -1.66E-03
    60 OT DIIS     0.80E-01   10.8     0.00002901     -6684.7513961834 -1.58E-03
    61 OT DIIS     0.80E-01   10.6     0.00002829     -6684.7529929799 -1.60E-03
    62 OT DIIS     0.80E-01   10.4     0.00002758     -6684.7545207902 -1.53E-03
    63 OT DIIS     0.80E-01   10.5     0.00002696     -6684.7559279934 -1.41E-03
    64 OT DIIS     0.80E-01   10.5     0.00002633     -6684.7572522436 -1.32E-03
    65 OT DIIS     0.80E-01   10.6     0.00002570     -6684.7585889167 -1.34E-03
    66 OT DIIS     0.80E-01   10.6     0.00002508     -6684.7599094892 -1.32E-03
    67 OT DIIS     0.80E-01   10.4     0.00002457     -6684.7610313723 -1.12E-03
    68 OT DIIS     0.80E-01   10.5     0.00002407     -6684.7621033167 -1.07E-03
    69 OT DIIS     0.80E-01   10.7     0.00002357     -6684.7632138747 -1.11E-03
    70 OT DIIS     0.80E-01   10.5     0.00002308     -6684.7642344154 -1.02E-03
    71 OT DIIS     0.80E-01   10.7     0.00002266     -6684.7651882258 -9.54E-04
    72 OT DIIS     0.80E-01   10.8     0.00002223     -6684.7660818259 -8.94E-04
    73 OT DIIS     0.80E-01   10.7     0.00002180     -6684.7669896265 -9.08E-04
    74 OT DIIS     0.80E-01   10.4     0.00002138     -6684.7678670863 -8.77E-04
    75 OT DIIS     0.80E-01   10.4     0.00002103     -6684.7686444422 -7.77E-04
    76 OT DIIS     0.80E-01   10.6     0.00002069     -6684.7693849342 -7.40E-04
    77 OT DIIS     0.80E-01   10.6     0.00002033     -6684.7701684279 -7.83E-04
    78 OT DIIS     0.80E-01   10.8     0.00002000     -6684.7708779429 -7.10E-04
    79 OT DIIS     0.80E-01   10.4     0.00001969     -6684.7715753356 -6.97E-04
    80 OT DIIS     0.80E-01   10.5     0.00001939     -6684.7722432392 -6.68E-04
    81 OT DIIS     0.80E-01   10.5     0.00001907     -6684.7729293732 -6.86E-04
    82 OT DIIS     0.80E-01   10.4     0.00001876     -6684.7735826862 -6.53E-04
    83 OT DIIS     0.80E-01   10.5     0.00001849     -6684.7741890201 -6.06E-04
    84 OT DIIS     0.80E-01   10.5     0.00001823     -6684.7747672298 -5.78E-04
    85 OT DIIS     0.80E-01   10.4     0.00001795     -6684.7753896513 -6.22E-04
    86 OT DIIS     0.80E-01   10.1     0.00001770     -6684.7759425610 -5.53E-04
    87 OT DIIS     0.80E-01   10.6     0.00001745     -6684.7764979127 -5.55E-04
    88 OT DIIS     0.80E-01   10.3     0.00001721     -6684.7770287928 -5.31E-04
    89 OT DIIS     0.80E-01   10.5     0.00001696     -6684.7775716688 -5.43E-04
    90 OT DIIS     0.80E-01   10.2     0.00001671     -6684.7780788083 -5.07E-04
    91 OT DIIS     0.80E-01   10.3     0.00001650     -6684.7785627390 -4.84E-04
    92 OT DIIS     0.80E-01   10.3     0.00001629     -6684.7790141069 -4.51E-04
    93 OT DIIS     0.80E-01   10.3     0.00001607     -6684.7794972143 -4.83E-04
    94 OT DIIS     0.80E-01   10.2     0.00001587     -6684.7799214920 -4.24E-04
    95 OT DIIS     0.80E-01   10.3     0.00001568     -6684.7803571946 -4.36E-04
    96 OT DIIS     0.80E-01   10.1     0.00001549     -6684.7807691696 -4.12E-04
    97 OT DIIS     0.80E-01   10.2     0.00001529     -6684.7811878302 -4.19E-04
    98 OT DIIS     0.80E-01   10.3     0.00001510     -6684.7815741079 -3.86E-04
    99 OT DIIS     0.80E-01   10.2     0.00001493     -6684.7819558884 -3.82E-04
   100 OT DIIS     0.80E-01   10.8     0.00001477     -6684.7823112738 -3.55E-04

  Leaving inner SCF loop after reaching   100 steps.


  Electronic density on regular grids:      -2349.9999999921        0.0000000079
  Core density on regular grids:             2349.9999999989       -0.0000000011
  Total charge density on r-space grids:        0.0000000068
  Total charge density g-space grids:           0.0000000068

  Overlap energy of the core charge distribution:               0.00000905707764
  Self energy of the core charge distribution:             -15464.48285609965569
  Core Hamiltonian energy:                                   4104.82301593857483
  Hartree energy:                                            5946.51911757026301
  Exchange-correlation energy:                              -1270.06473975915787
  Dispersion energy:                                           -1.57685798088410

  Total energy:                                             -6684.78231127378149

  outer SCF iter =    1 RMS gradient =   0.15E-04 energy =      -6684.7823112738

  ----------------------------------- OT ---------------------------------------
  Minimizer      : DIIS                : direct inversion
                                         in the iterative subspace
                                         using   7 DIIS vectors
                                         safer DIIS on
  Preconditioner : FULL_SINGLE_INVERSE : inversion of 
                                         H + eS - 2*(Sc)(c^T*H*c+const)(Sc)^T
  Precond_solver : DEFAULT
  stepsize       :    0.08000000                  energy_gap     :    0.08000000
  eps_taylor     :   0.10000E-15                  max_taylor     :             4
  ----------------------------------- OT ---------------------------------------

  Step     Update method      Time    Convergence         Total energy    Change
  ------------------------------------------------------------------------------
     1 OT DIIS     0.80E-01   31.0     0.00013875     -6684.7826921668 -3.81E-04
     2 OT DIIS     0.80E-01    9.8     0.00015057     -6684.7880807135 -5.39E-03
     3 OT DIIS     0.80E-01   10.0     0.00017834     -6684.7893698595 -1.29E-03
     4 OT DIIS     0.80E-01   10.0     0.00013501     -6684.7915581834 -2.19E-03
     5 OT DIIS     0.80E-01   10.0     0.00008534     -6684.7940953786 -2.54E-03
     6 OT DIIS     0.80E-01   10.1     0.00009087     -6684.7953365156 -1.24E-03
     7 OT DIIS     0.80E-01   10.1     0.00006269     -6684.7966454912 -1.31E-03
     8 OT DIIS     0.80E-01   10.6     0.00005785     -6684.7977111053 -1.07E-03
     9 OT DIIS     0.80E-01   10.4     0.00004999     -6684.7985052703 -7.94E-04
    10 OT DIIS     0.80E-01   10.5     0.00004913     -6684.7994867076 -9.81E-04
    11 OT DIIS     0.80E-01   10.8     0.00004472     -6684.8004843807 -9.98E-04
    12 OT DIIS     0.80E-01   10.6     0.00004238     -6684.8014967796 -1.01E-03
    13 OT DIIS     0.80E-01   10.5     0.00004425     -6684.8023835877 -8.87E-04
    14 OT DIIS     0.80E-01   10.8     0.00003870     -6684.8031428814 -7.59E-04
    15 OT DIIS     0.80E-01   10.6     0.00004070     -6684.8037005381 -5.58E-04
    16 OT DIIS     0.80E-01   10.5     0.00003592     -6684.8042320071 -5.31E-04
    17 OT DIIS     0.80E-01   10.6     0.00003370     -6684.8048338969 -6.02E-04
    18 OT DIIS     0.80E-01   10.6     0.00003118     -6684.8052935573 -4.60E-04
    19 OT DIIS     0.80E-01   10.5     0.00003305     -6684.8056196211 -3.26E-04
    20 OT DIIS     0.80E-01   10.8     0.00002997     -6684.8059921042 -3.72E-04
    21 OT DIIS     0.80E-01   10.6     0.00003196     -6684.8062337408 -2.42E-04
    22 OT DIIS     0.80E-01   10.7     0.00003083     -6684.8063462777 -1.13E-04
    23 OT DIIS     0.80E-01   10.4     0.00002979     -6684.8066411764 -2.95E-04
    24 OT DIIS     0.80E-01   10.7     0.00002846     -6684.8067776692 -1.36E-04
    25 OT DIIS     0.80E-01   10.8     0.00002704     -6684.8068384396 -6.08E-05
    26 OT DIIS     0.80E-01   10.6     0.00002436     -6684.8069111115 -7.27E-05
    27 OT DIIS     0.80E-01   10.5     0.00002355     -6684.8070839603 -1.73E-04
    28 OT DIIS     0.80E-01   10.7     0.00002230     -6684.8071166086 -3.26E-05
    29 OT DIIS     0.80E-01   10.6     0.00002202     -6684.8071980177 -8.14E-05
    30 OT DIIS     0.80E-01   10.5     0.00002120     -6684.8072734110 -7.54E-05
    31 OT DIIS     0.80E-01   10.7     0.00002092     -6684.8073661049 -9.27E-05
    32 OT DIIS     0.80E-01   10.5     0.00002064     -6684.8074603336 -9.42E-05
    33 OT DIIS     0.80E-01   10.6     0.00002102     -6684.8075471682 -8.68E-05
    34 OT DIIS     0.80E-01   10.4     0.00002036     -6684.8076118667 -6.47E-05
    35 OT DIIS     0.80E-01   10.7     0.00002023     -6684.8077558634 -1.44E-04
    36 OT DIIS     0.80E-01   10.6     0.00002047     -6684.8078065269 -5.07E-05
    37 OT DIIS     0.80E-01   10.7     0.00002045     -6684.8078798311 -7.33E-05
    38 OT DIIS     0.80E-01   10.7     0.00001985     -6684.8079510571 -7.12E-05
    39 OT DIIS     0.80E-01   10.7     0.00001931     -6684.8080013276 -5.03E-05
    40 OT DIIS     0.80E-01   10.6     0.00001841     -6684.8080675099 -6.62E-05
    41 OT DIIS     0.80E-01   10.5     0.00001827     -6684.8081331001 -6.56E-05
    42 OT DIIS     0.80E-01   10.5     0.00001770     -6684.8081720508 -3.90E-05
    43 OT DIIS     0.80E-01   10.7     0.00001741     -6684.8082635630 -9.15E-05
    44 OT DIIS     0.80E-01   10.6     0.00001766     -6684.8083201020 -5.65E-05
    45 OT DIIS     0.80E-01   10.6     0.00001788     -6684.8083938938 -7.38E-05
    46 OT DIIS     0.80E-01   10.4     0.00001814     -6684.8084803399 -8.64E-05
    47 OT DIIS     0.80E-01   10.5     0.00001824     -6684.8085261096 -4.58E-05
    48 OT DIIS     0.80E-01   10.7     0.00001773     -6684.8085893587 -6.32E-05
    49 OT DIIS     0.80E-01   10.4     0.00001771     -6684.8086659157 -7.66E-05
    50 OT DIIS     0.80E-01   10.2     0.00001725     -6684.8086949281 -2.90E-05
    51 OT DIIS     0.80E-01   10.2     0.00001661     -6684.8087545059 -5.96E-05
    52 OT DIIS     0.80E-01   10.3     0.00001644     -6684.8088003636 -4.59E-05
    53 OT DIIS     0.80E-01   10.5     0.00001620     -6684.8088465107 -4.61E-05
    54 OT DIIS     0.80E-01   10.6     0.00001611     -6684.8089118930 -6.54E-05
    55 OT DIIS     0.80E-01   10.7     0.00001619     -6684.8089491437 -3.73E-05
    56 OT DIIS     0.80E-01   10.7     0.00001598     -6684.8090017874 -5.26E-05
    57 OT DIIS     0.80E-01   10.7     0.00001614     -6684.8090823194 -8.05E-05
    58 OT DIIS     0.80E-01   10.6     0.00001635     -6684.8091321685 -4.98E-05
    59 OT DIIS     0.80E-01   10.5     0.00001605     -6684.8091763453 -4.42E-05
    60 OT DIIS     0.80E-01   10.5     0.00001607     -6684.8092315967 -5.53E-05
    61 OT DIIS     0.80E-01   10.5     0.00001591     -6684.8092749406 -4.33E-05
    62 OT DIIS     0.80E-01   10.6     0.00001569     -6684.8093353496 -6.04E-05
    63 OT DIIS     0.80E-01   10.5     0.00001556     -6684.8093570063 -2.17E-05
    64 OT DIIS     0.80E-01   10.6     0.00001501     -6684.8093869409 -2.99E-05
    65 OT DIIS     0.80E-01   10.4     0.00001478     -6684.8094483419 -6.14E-05
    66 OT DIIS     0.80E-01   10.7     0.00001488     -6684.8094973450 -4.90E-05
    67 OT DIIS     0.80E-01   10.5     0.00001476     -6684.8095278779 -3.05E-05
    68 OT DIIS     0.80E-01   10.5     0.00001486     -6684.8095851294 -5.73E-05
    69 OT DIIS     0.80E-01   10.7     0.00001494     -6684.8096328778 -4.77E-05
    70 OT DIIS     0.80E-01   10.5     0.00001501     -6684.8096958319 -6.30E-05
    71 OT DIIS     0.80E-01   10.7     0.00001524     -6684.8097276594 -3.18E-05
    72 OT DIIS     0.80E-01   10.5     0.00001489     -6684.8097512949 -2.36E-05
    73 OT DIIS     0.80E-01   10.6     0.00001449     -6684.8098059630 -5.47E-05
    74 OT DIIS     0.80E-01   10.6     0.00001443     -6684.8098549593 -4.90E-05
    75 OT DIIS     0.80E-01   10.7     0.00001413     -6684.8098654718 -1.05E-05
    76 OT DIIS     0.80E-01   10.6     0.00001392     -6684.8099099312 -4.45E-05
    77 OT DIIS     0.80E-01   10.6     0.00001384     -6684.8099481130 -3.82E-05
    78 OT DIIS     0.80E-01   10.7     0.00001382     -6684.8099978969 -4.98E-05
    79 OT DIIS     0.80E-01   10.4     0.00001405     -6684.8100357355 -3.78E-05
    80 OT DIIS     0.80E-01   10.6     0.00001404     -6684.8100619596 -2.62E-05
    81 OT DIIS     0.80E-01   10.7     0.00001384     -6684.8101144917 -5.25E-05
    82 OT DIIS     0.80E-01   10.7     0.00001401     -6684.8101760888 -6.16E-05
    83 OT DIIS     0.80E-01   10.7     0.00001400     -6684.8101837581 -7.67E-06
    84 OT DIIS     0.80E-01   10.7     0.00001377     -6684.8102245473 -4.08E-05
    85 OT DIIS     0.80E-01   10.7     0.00001357     -6684.8102553913 -3.08E-05
    86 OT DIIS     0.80E-01   10.7     0.00001331     -6684.8102932569 -3.79E-05
    87 OT DIIS     0.80E-01   10.6     0.00001329     -6684.8103267771 -3.35E-05
    88 OT DIIS     0.80E-01   10.6     0.00001317     -6684.8103463275 -1.96E-05
    89 OT DIIS     0.80E-01   10.6     0.00001290     -6684.8103830325 -3.67E-05
    90 OT DIIS     0.80E-01   10.5     0.00001298     -6684.8104392715 -5.62E-05
    91 OT DIIS     0.80E-01   10.5     0.00001318     -6684.8104565548 -1.73E-05
    92 OT DIIS     0.80E-01   10.5     0.00001319     -6684.8104997571 -4.32E-05
    93 OT DIIS     0.80E-01   10.6     0.00001323     -6684.8105360297 -3.63E-05
    94 OT DIIS     0.80E-01   10.6     0.00001314     -6684.8105698916 -3.39E-05
    95 OT DIIS     0.80E-01   10.6     0.00001312     -6684.8106056178 -3.57E-05
    96 OT DIIS     0.80E-01   10.5     0.00001299     -6684.8106218441 -1.62E-05
    97 OT DIIS     0.80E-01   10.7     0.00001255     -6684.8106450533 -2.32E-05
    98 OT DIIS     0.80E-01   10.5     0.00001238     -6684.8106922628 -4.72E-05
    99 OT DIIS     0.80E-01   10.5     0.00001242     -6684.8107075844 -1.53E-05
   100 OT DIIS     0.80E-01   10.7     0.00001233     -6684.8107413452 -3.38E-05

  Leaving inner SCF loop after reaching   100 steps.


  Electronic density on regular grids:      -2349.9999999921        0.0000000079
  Core density on regular grids:             2349.9999999989       -0.0000000011
  Total charge density on r-space grids:        0.0000000068
  Total charge density g-space grids:           0.0000000068

  Overlap energy of the core charge distribution:               0.00000905707764
  Self energy of the core charge distribution:             -15464.48285609965569
  Core Hamiltonian energy:                                   4104.73802304496712
  Hartree energy:                                            5946.56480807519893
  Exchange-correlation energy:                              -1270.05386744188468
  Dispersion energy:                                           -1.57685798088410

  Total energy:                                             -6684.81074134518076

  outer SCF iter =    2 RMS gradient =   0.12E-04 energy =      -6684.8107413452

  ----------------------------------- OT ---------------------------------------
  Minimizer      : DIIS                : direct inversion
                                         in the iterative subspace
                                         using   7 DIIS vectors
                                         safer DIIS on
  Preconditioner : FULL_SINGLE_INVERSE : inversion of 
                                         H + eS - 2*(Sc)(c^T*H*c+const)(Sc)^T
  Precond_solver : DEFAULT
  stepsize       :    0.08000000                  energy_gap     :    0.08000000
  eps_taylor     :   0.10000E-15                  max_taylor     :             4
  ----------------------------------- OT ---------------------------------------

  Step     Update method      Time    Convergence         Total energy    Change
  ------------------------------------------------------------------------------
     1 OT DIIS     0.80E-01   29.7     0.00001235     -6684.8107750566 -3.37E-05
     2 OT DIIS     0.80E-01    9.7     0.00002747     -6684.8108120590 -3.70E-05
     3 OT DIIS     0.80E-01    9.9     0.00001156     -6684.8108444057 -3.23E-05
     4 OT DIIS     0.80E-01    9.9     0.00001130     -6684.8108632424 -1.88E-05
     5 OT DIIS     0.80E-01   10.0     0.00001495     -6684.8111895148 -3.26E-04
     6 OT SD       0.80E-01   10.1     0.00005888     -6684.8122816976 -1.09E-03
     7 OT DIIS     0.80E-01   10.0     0.00017875     -6684.8109774965  1.30E-03
     8 OT DIIS     0.80E-01   10.2     0.00006250     -6684.8122876335 -1.31E-03
     9 OT DIIS     0.80E-01   10.0     0.00002358     -6684.8115904085  6.97E-04
    10 OT DIIS     0.80E-01   10.1     0.00001688     -6684.8121136631 -5.23E-04
    11 OT SD       0.80E-01   10.0     0.00001239     -6684.8125108463 -3.97E-04
    12 OT SD       0.80E-01   10.1     0.00003710     -6684.8124929038  1.79E-05
    13 OT DIIS     0.80E-01    9.7     0.00017298     -6684.8114105989  1.08E-03
    14 OT DIIS     0.80E-01   10.1     0.00000830     -6684.8125082934 -1.10E-03

  *** SCF run converged in    14 steps ***


  Electronic density on regular grids:      -2349.9999999920        0.0000000080
  Core density on regular grids:             2349.9999999989       -0.0000000011
  Total charge density on r-space grids:        0.0000000069
  Total charge density g-space grids:           0.0000000069

  Overlap energy of the core charge distribution:               0.00000905707764
  Self energy of the core charge distribution:             -15464.48285609965569
  Core Hamiltonian energy:                                   4104.73204682590131
  Hartree energy:                                            5946.56644850998873
  Exchange-correlation energy:                              -1270.05129860585134
  Dispersion energy:                                           -1.57685798088410

  Total energy:                                             -6684.81250829342207

  outer SCF iter =    3 RMS gradient =   0.83E-05 energy =      -6684.8125082934
  outer SCF loop converged in   3 iterations or  214 steps


 ENERGY| Total FORCE_EVAL ( QS ) energy [hartree]          -6684.812566405854341

 MD_INI| MD initialization
 MD_INI| Potential energy [hartree]                          -0.668481256641E+04
 MD_INI| Kinetic energy [hartree]                             0.178407925950E+01
 MD_INI| Temperature [K]                                              973.000000
 MD_INI| Pressure [bar]                                      -1.554070079398E+03
 MD_INI| Cell volume [bohr^3]                                 1.308601720879E+05
 MD_INI| Cell volume [ang^3]                                  1.939147658976E+04
 MD_INI| Cell lengths [bohr]      6.16914211E+01  4.40970598E+01  4.81031015E+01
 MD_INI| Cell lengths [ang]       3.26456940E+01  2.33351590E+01  2.54550650E+01
 MD_INI| Cell angles [deg]        9.00000000E+01  9.00000000E+01  9.00000000E+01

 Extrapolation method: ASPC

 Number of electrons:                                                       2350
 Number of occupied orbitals:                                               1175
 Number of molecular orbitals:                                              1175

 Number of orbital functions:                                               4917
 Number of independent orbital functions:                                   4917


 SCF WAVEFUNCTION OPTIMIZATION

  ----------------------------------- OT ---------------------------------------
  Minimizer      : DIIS                : direct inversion
                                         in the iterative subspace
                                         using   7 DIIS vectors
                                         safer DIIS on
  Preconditioner : FULL_SINGLE_INVERSE : inversion of 
                                         H + eS - 2*(Sc)(c^T*H*c+const)(Sc)^T
  Precond_solver : DEFAULT
  stepsize       :    0.08000000                  energy_gap     :    0.08000000
  eps_taylor     :   0.10000E-15                  max_taylor     :             4
  ----------------------------------- OT ---------------------------------------

  Step     Update method      Time    Convergence         Total energy    Change
  ------------------------------------------------------------------------------
     1 OT DIIS     0.80E-01   16.3     0.00006531     -6684.8098299713 -6.68E+03
     2 OT DIIS     0.80E-01   10.4     0.00005034     -6684.8110631538 -1.23E-03
     3 OT DIIS     0.80E-01   10.4     0.00008490     -6684.8112219428 -1.59E-04
     4 OT DIIS     0.80E-01   10.7     0.00005918     -6684.8115357649 -3.14E-04
     5 OT DIIS     0.80E-01   10.6     0.00003178     -6684.8118064861 -2.71E-04
     6 OT DIIS     0.80E-01   10.2     0.00002608     -6684.8118939782 -8.75E-05
     7 OT DIIS     0.80E-01   10.5     0.00001576     -6684.8119384923 -4.45E-05
     8 OT DIIS     0.80E-01   10.3     0.00001248     -6684.8119662120 -2.77E-05
     9 OT DIIS     0.80E-01   10.6     0.00000953     -6684.8119893926 -2.32E-05

  *** SCF run converged in     9 steps ***


  Electronic density on regular grids:      -2349.9999999925        0.0000000075
  Core density on regular grids:             2349.9999999989       -0.0000000011
  Total charge density on r-space grids:        0.0000000064
  Total charge density g-space grids:           0.0000000064

  Overlap energy of the core charge distribution:               0.00000921093487
  Self energy of the core charge distribution:             -15464.48285609965569
  Core Hamiltonian energy:                                   4104.68352942089405
  Hartree energy:                                            5946.60260282016407
  Exchange-correlation energy:                              -1270.03839606335191
  Dispersion energy:                                           -1.57687868162952

  Total energy:                                             -6684.81198939264414

  outer SCF iter =    1 RMS gradient =   0.95E-05 energy =      -6684.8119893926
  outer SCF loop converged in   1 iterations or    9 steps


 ENERGY| Total FORCE_EVAL ( QS ) energy [hartree]          -6684.812009501755711

 MD| ***************************************************************************
 MD| Step number                                                               1
 MD| Time [fs]                                                          0.250000
 MD| Conserved quantity [hartree]                            -0.668302868185E+04
 MD| ---------------------------------------------------------------------------
 MD|                                          Instantaneous             Averages
 MD| CPU time per MD step [s]                   2470.228004          2470.228004
 MD| Energy drift per atom [K]          -0.158871844538E+00   0.000000000000E+00
 MD| Potential energy [hartree]         -0.668481200950E+04  -0.668481200950E+04
 MD| Kinetic energy [hartree]            0.179381829379E+01   0.179381829379E+01
 MD| Temperature [K]                             978.311468           978.311468
 MD| Pressure [bar]                     -1.574224753144E+03  -1.574224753144E+03
 MD| ***************************************************************************
 MD| Estimated peak process memory after this step [MiB]                   17490

 Extrapolation method: ASPC

 Number of electrons:                                                       2350
 Number of occupied orbitals:                                               1175
 Number of molecular orbitals:                                              1175

 Number of orbital functions:                                               4917
 Number of independent orbital functions:                                   4917


 SCF WAVEFUNCTION OPTIMIZATION

  ----------------------------------- OT ---------------------------------------
  Minimizer      : DIIS                : direct inversion
                                         in the iterative subspace
                                         using   7 DIIS vectors
                                         safer DIIS on
  Preconditioner : FULL_SINGLE_INVERSE : inversion of 
                                         H + eS - 2*(Sc)(c^T*H*c+const)(Sc)^T
  Precond_solver : DEFAULT
  stepsize       :    0.08000000                  energy_gap     :    0.08000000
  eps_taylor     :   0.10000E-15                  max_taylor     :             4
  ----------------------------------- OT ---------------------------------------

  Step     Update method      Time    Convergence         Total energy    Change
  ------------------------------------------------------------------------------
     1 OT DIIS     0.80E-01   16.4     0.00001319     -6684.8070728395 -6.68E+03
     2 OT DIIS     0.80E-01   10.3     0.00004746     -6684.8070213118  5.15E-05
     3 OT DIIS     0.80E-01   10.5     0.00001047     -6684.8071106406 -8.93E-05
     4 OT DIIS     0.80E-01   10.3     0.00000861     -6684.8071209862 -1.03E-05

  *** SCF run converged in     4 steps ***


  Electronic density on regular grids:      -2349.9999999929        0.0000000071
  Core density on regular grids:             2349.9999999989       -0.0000000011
  Total charge density on r-space grids:        0.0000000060
  Total charge density g-space grids:           0.0000000060

  Overlap energy of the core charge distribution:               0.00000991469685
  Self energy of the core charge distribution:             -15464.48285609965569
  Core Hamiltonian energy:                                   4104.64583373316691
  Hartree energy:                                            5946.63399920335632
  Exchange-correlation energy:                              -1270.02719819031563
  Dispersion energy:                                           -1.57690954742122

  Total energy:                                             -6684.80712098617460

  outer SCF iter =    1 RMS gradient =   0.86E-05 energy =      -6684.8071209862
  outer SCF loop converged in   1 iterations or    4 steps


 ENERGY| Total FORCE_EVAL ( QS ) energy [hartree]          -6684.807141338297697

 MD| ***************************************************************************
 MD| Step number                                                               2
 MD| Time [fs]                                                          0.500000
 MD| Conserved quantity [hartree]                            -0.668302892007E+04
 MD| ---------------------------------------------------------------------------
 MD|                                          Instantaneous             Averages
 MD| CPU time per MD step [s]                     81.352195          1275.790100
 MD| Energy drift per atom [K]          -0.353243320175E+00  -0.176621660087E+00
 MD| Potential energy [hartree]         -0.668480714134E+04  -0.668480957542E+04
 MD| Kinetic energy [hartree]            0.183708915250E+01   0.181545372315E+01
 MD| Temperature [K]                            1001.910501           990.110985
 MD| Pressure [bar]                     -1.533904549363E+03  -1.554064651254E+03
 MD| ***************************************************************************
 MD| Estimated peak process memory after this step [MiB]                   17490

 Extrapolation method: ASPC

 Number of electrons:                                                       2350
 Number of occupied orbitals:                                               1175
 Number of molecular orbitals:                                              1175

 Number of orbital functions:                                               4917
 Number of independent orbital functions:                                   4917


 SCF WAVEFUNCTION OPTIMIZATION

  ----------------------------------- OT ---------------------------------------
  Minimizer      : DIIS                : direct inversion
                                         in the iterative subspace
                                         using   7 DIIS vectors
                                         safer DIIS on
  Preconditioner : FULL_SINGLE_INVERSE : inversion of 
                                         H + eS - 2*(Sc)(c^T*H*c+const)(Sc)^T
  Precond_solver : DEFAULT
  stepsize       :    0.08000000                  energy_gap     :    0.08000000
  eps_taylor     :   0.10000E-15                  max_taylor     :             4
  ----------------------------------- OT ---------------------------------------

  Step     Update method      Time    Convergence         Total energy    Change
  ------------------------------------------------------------------------------
     1 OT DIIS     0.80E-01   16.3     0.00001659     -6684.7983475793 -6.68E+03
     2 OT DIIS     0.80E-01   10.6     0.00006860     -6684.7981941508  1.53E-04
     3 OT DIIS     0.80E-01   10.5     0.00000906     -6684.7983845303 -1.90E-04

  *** SCF run converged in     3 steps ***


  Electronic density on regular grids:      -2349.9999999931        0.0000000069
  Core density on regular grids:             2349.9999999989       -0.0000000011
  Total charge density on r-space grids:        0.0000000058
  Total charge density g-space grids:           0.0000000058

  Overlap energy of the core charge distribution:               0.00001132278189
  Self energy of the core charge distribution:             -15464.48285609965569
  Core Hamiltonian energy:                                   4104.61655864784734
  Hartree energy:                                            5946.66190826117145
  Exchange-correlation energy:                              -1270.01705510109150
  Dispersion energy:                                           -1.57695156137183

  Total energy:                                             -6684.79838453031880

  outer SCF iter =    1 RMS gradient =   0.91E-05 energy =      -6684.7983845303
  outer SCF loop converged in   1 iterations or    3 steps


 ENERGY| Total FORCE_EVAL ( QS ) energy [hartree]          -6684.798392814891486

 MD| ***************************************************************************
 MD| Step number                                                               3
 MD| Time [fs]                                                          0.750000
 MD| Conserved quantity [hartree]                            -0.668302917268E+04
 MD| ---------------------------------------------------------------------------
 MD|                                          Instantaneous             Averages
 MD| CPU time per MD step [s]                     71.165532           874.248577
 MD| Energy drift per atom [K]          -0.559366349435E+00  -0.304203223203E+00
 MD| Potential energy [hartree]         -0.668479839281E+04  -0.668480584788E+04
 MD| Kinetic energy [hartree]            0.184132036886E+01   0.182407593838E+01
 MD| Temperature [K]                            1004.218119           994.813363
 MD| Pressure [bar]                     -1.539584792226E+03  -1.549238031578E+03
 MD| ***************************************************************************
 MD| Estimated peak process memory after this step [MiB]                   17490

 Extrapolation method: ASPC

 Number of electrons:                                                       2350
 Number of occupied orbitals:                                               1175
 Number of molecular orbitals:                                              1175

 Number of orbital functions:                                               4917
 Number of independent orbital functions:                                   4917


 SCF WAVEFUNCTION OPTIMIZATION

  ----------------------------------- OT ---------------------------------------
  Minimizer      : DIIS                : direct inversion
                                         in the iterative subspace
                                         using   7 DIIS vectors
                                         safer DIIS on
  Preconditioner : FULL_SINGLE_INVERSE : inversion of 
                                         H + eS - 2*(Sc)(c^T*H*c+const)(Sc)^T
  Precond_solver : DEFAULT
  stepsize       :    0.08000000                  energy_gap     :    0.08000000
  eps_taylor     :   0.10000E-15                  max_taylor     :             4
  ----------------------------------- OT ---------------------------------------

  Step     Update method      Time    Convergence         Total energy    Change
  ------------------------------------------------------------------------------
     1 OT DIIS     0.80E-01   16.6     0.00002079     -6684.7864608051 -6.68E+03
     2 OT DIIS     0.80E-01   10.4     0.00010112     -6684.7861231820  3.38E-04
     3 OT DIIS     0.80E-01   10.4     0.00000968     -6684.7864999087 -3.77E-04

  *** SCF run converged in     3 steps ***


  Electronic density on regular grids:      -2349.9999999935        0.0000000065
  Core density on regular grids:             2349.9999999989       -0.0000000011
  Total charge density on r-space grids:        0.0000000054
  Total charge density g-space grids:           0.0000000054

  Overlap energy of the core charge distribution:               0.00001343629476
  Self energy of the core charge distribution:             -15464.48285609965569
  Core Hamiltonian energy:                                   4104.58839774620265
  Hartree energy:                                            5946.69115785471058
  Exchange-correlation energy:                              -1270.00620578216262
  Dispersion energy:                                           -1.57700706408969

  Total energy:                                             -6684.78649990869962

  outer SCF iter =    1 RMS gradient =   0.97E-05 energy =      -6684.7864999087
  outer SCF loop converged in   1 iterations or    3 steps


 ENERGY| Total FORCE_EVAL ( QS ) energy [hartree]          -6684.786507244778477

 MD| ***************************************************************************
 MD| Step number                                                               4
 MD| Time [fs]                                                          1.000000
 MD| Conserved quantity [hartree]                            -0.668302939441E+04
 MD| ---------------------------------------------------------------------------
 MD|                                          Instantaneous             Averages
 MD| CPU time per MD step [s]                     71.313266           673.514749
 MD| Energy drift per atom [K]          -0.740283753553E+00  -0.413223355791E+00
 MD| Potential energy [hartree]         -0.668478650724E+04  -0.668480101272E+04
 MD| Kinetic energy [hartree]            0.186389017458E+01   0.183402949743E+01
 MD| Temperature [K]                            1016.527226          1000.241829
 MD| Pressure [bar]                     -1.507339088566E+03  -1.538763295825E+03
 MD| ***************************************************************************
 MD| Estimated peak process memory after this step [MiB]                   17589

 Extrapolation method: ASPC

 Number of electrons:                                                       2350
 Number of occupied orbitals:                                               1175
 Number of molecular orbitals:                                              1175

 Number of orbital functions:                                               4917
 Number of independent orbital functions:                                   4917


 SCF WAVEFUNCTION OPTIMIZATION

  ----------------------------------- OT ---------------------------------------
  Minimizer      : DIIS                : direct inversion
                                         in the iterative subspace
                                         using   7 DIIS vectors
                                         safer DIIS on
  Preconditioner : FULL_SINGLE_INVERSE : inversion of 
                                         H + eS - 2*(Sc)(c^T*H*c+const)(Sc)^T
  Precond_solver : DEFAULT
  stepsize       :    0.08000000                  energy_gap     :    0.08000000
  eps_taylor     :   0.10000E-15                  max_taylor     :             4
  ----------------------------------- OT ---------------------------------------

  Step     Update method      Time    Convergence         Total energy    Change
  ------------------------------------------------------------------------------
     1 OT DIIS     0.80E-01   16.2     0.00002612     -6684.7725807217 -6.68E+03
     2 OT DIIS     0.80E-01   10.2     0.00013464     -6684.7719840123  5.97E-04
     3 OT DIIS     0.80E-01   10.5     0.00001052     -6684.7726260039 -6.42E-04
     4 OT DIIS     0.80E-01   10.7     0.00000890     -6684.7726343468 -8.34E-06

  *** SCF run converged in     4 steps ***


  Electronic density on regular grids:      -2349.9999999939        0.0000000061
  Core density on regular grids:             2349.9999999989       -0.0000000011
  Total charge density on r-space grids:        0.0000000050
  Total charge density g-space grids:           0.0000000050

  Overlap energy of the core charge distribution:               0.00001580958555
  Self energy of the core charge distribution:             -15464.48285609965569
  Core Hamiltonian energy:                                   4104.56779278480553
  Hartree energy:                                            5946.71568537874919
  Exchange-correlation energy:                              -1269.99619561858754
  Dispersion energy:                                           -1.57707660168558

  Total energy:                                             -6684.77263434678662

  outer SCF iter =    1 RMS gradient =   0.89E-05 energy =      -6684.7726343468
  outer SCF loop converged in   1 iterations or    4 steps


 ENERGY| Total FORCE_EVAL ( QS ) energy [hartree]          -6684.772644048475740

 MD| ***************************************************************************
 MD| Step number                                                               5
 MD| Time [fs]                                                          1.250000
 MD| Conserved quantity [hartree]                            -0.668302959043E+04
 MD| ---------------------------------------------------------------------------
 MD|                                          Instantaneous             Averages
 MD| CPU time per MD step [s]                     82.382932           555.288386
 MD| Energy drift per atom [K]          -0.900231869045E+00  -0.510625058441E+00
 MD| Potential energy [hartree]         -0.668477264405E+04  -0.668479533899E+04
 MD| Kinetic energy [hartree]            0.184558644245E+01   0.183634088644E+01
 MD| Temperature [K]                            1006.544748          1001.502413
 MD| Pressure [bar]                     -1.531402909536E+03  -1.537291218567E+03
 MD| ***************************************************************************
 MD| Estimated peak process memory after this step [MiB]                   17591

 Extrapolation method: ASPC

 Number of electrons:                                                       2350
 Number of occupied orbitals:                                               1175
 Number of molecular orbitals:                                              1175

 Number of orbital functions:                                               4917
 Number of independent orbital functions:                                   4917


 SCF WAVEFUNCTION OPTIMIZATION

  ----------------------------------- OT ---------------------------------------
  Minimizer      : DIIS                : direct inversion
                                         in the iterative subspace
                                         using   7 DIIS vectors
                                         safer DIIS on
  Preconditioner : FULL_SINGLE_INVERSE : inversion of 
                                         H + eS - 2*(Sc)(c^T*H*c+const)(Sc)^T
  Precond_solver : DEFAULT
  stepsize       :    0.08000000                  energy_gap     :    0.08000000
  eps_taylor     :   0.10000E-15                  max_taylor     :             4
  ----------------------------------- OT ---------------------------------------

  Step     Update method      Time    Convergence         Total energy    Change
  ------------------------------------------------------------------------------
     1 OT DIIS     0.80E-01   16.2     0.00002342     -6684.7580102463 -6.68E+03
     2 OT DIIS     0.80E-01   10.4     0.00011339     -6684.7575660102  4.44E-04
     3 OT DIIS     0.80E-01   10.4     0.00001186     -6684.7580428063 -4.77E-04
     4 OT DIIS     0.80E-01   10.3     0.00000818     -6684.7580503943 -7.59E-06

  *** SCF run converged in     4 steps ***


  Electronic density on regular grids:      -2349.9999999943        0.0000000057
  Core density on regular grids:             2349.9999999989       -0.0000000011
  Total charge density on r-space grids:        0.0000000046
  Total charge density g-space grids:           0.0000000046

  Overlap energy of the core charge distribution:               0.00001754105900
  Self energy of the core charge distribution:             -15464.48285609965569
  Core Hamiltonian energy:                                   4104.54428086658845
  Hartree energy:                                            5946.74251553138311
  Exchange-correlation energy:                              -1269.98485180534135
  Dispersion energy:                                           -1.57715642829365

  Total energy:                                             -6684.75805039426086

  outer SCF iter =    1 RMS gradient =   0.82E-05 energy =      -6684.7580503943
  outer SCF loop converged in   1 iterations or    4 steps


 ENERGY| Total FORCE_EVAL ( QS ) energy [hartree]          -6684.758056773211138

 MD| ***************************************************************************
 MD| Step number                                                               6
 MD| Time [fs]                                                          1.500000
 MD| Conserved quantity [hartree]                            -0.668302977949E+04
 MD| ---------------------------------------------------------------------------
 MD|                                          Instantaneous             Averages
 MD| CPU time per MD step [s]                     82.164636           476.434428
 MD| Energy drift per atom [K]          -0.105449271104E+01  -0.601269667208E+00
 MD| Potential energy [hartree]         -0.668475805677E+04  -0.668478912529E+04
 MD| Kinetic energy [hartree]            0.186931683767E+01   0.184183687831E+01
 MD| Temperature [K]                            1019.486816          1004.499813
 MD| Pressure [bar]                     -1.490587614896E+03  -1.529507284622E+03
 MD| ***************************************************************************
 MD| Estimated peak process memory after this step [MiB]                   17597

 Extrapolation method: ASPC

 Number of electrons:                                                       2350
 Number of occupied orbitals:                                               1175
 Number of molecular orbitals:                                              1175

 Number of orbital functions:                                               4917
 Number of independent orbital functions:                                   4917


 SCF WAVEFUNCTION OPTIMIZATION

  ----------------------------------- OT ---------------------------------------
  Minimizer      : DIIS                : direct inversion
                                         in the iterative subspace
                                         using   7 DIIS vectors
                                         safer DIIS on
  Preconditioner : FULL_SINGLE_INVERSE : inversion of 
                                         H + eS - 2*(Sc)(c^T*H*c+const)(Sc)^T
  Precond_solver : DEFAULT
  stepsize       :    0.08000000                  energy_gap     :    0.08000000
  eps_taylor     :   0.10000E-15                  max_taylor     :             4
  ----------------------------------- OT ---------------------------------------

  Step     Update method      Time    Convergence         Total energy    Change
  ------------------------------------------------------------------------------
     1 OT DIIS     0.80E-01   16.7     0.00001952     -6684.7439344209 -6.68E+03
     2 OT DIIS     0.80E-01   10.6     0.00008907     -6684.7436558287  2.79E-04
     3 OT DIIS     0.80E-01   10.2     0.00000914     -6684.7439634366 -3.08E-04

  *** SCF run converged in     3 steps ***


  Electronic density on regular grids:      -2349.9999999948        0.0000000052
  Core density on regular grids:             2349.9999999989       -0.0000000011
  Total charge density on r-space grids:        0.0000000041
  Total charge density g-space grids:           0.0000000041

  Overlap energy of the core charge distribution:               0.00001777287406
  Self energy of the core charge distribution:             -15464.48285609965569
  Core Hamiltonian energy:                                   4104.51803155184280
  Hartree energy:                                            5946.77019327916150
  Exchange-correlation energy:                              -1269.97211358643199
  Dispersion energy:                                           -1.57723635434848

  Total energy:                                             -6684.74396343655735

  outer SCF iter =    1 RMS gradient =   0.91E-05 energy =      -6684.7439634366
  outer SCF loop converged in   1 iterations or    3 steps


 ENERGY| Total FORCE_EVAL ( QS ) energy [hartree]          -6684.743968555116226

 MD| ***************************************************************************
 MD| Step number                                                               7
 MD| Time [fs]                                                          1.750000
 MD| Conserved quantity [hartree]                            -0.668302994649E+04
 MD| ---------------------------------------------------------------------------
 MD|                                          Instantaneous             Averages
 MD| CPU time per MD step [s]                     71.986944           418.656216
 MD| Energy drift per atom [K]          -0.119076098430E+01  -0.685482712507E+00
 MD| Potential energy [hartree]         -0.668474396856E+04  -0.668478267433E+04
 MD| Kinetic energy [hartree]            0.179944101771E+01   0.183578032680E+01
 MD| Temperature [K]                             981.377986          1001.196695
 MD| Pressure [bar]                     -1.592643769200E+03  -1.538526782419E+03
 MD| ***************************************************************************
 MD| Estimated peak process memory after this step [MiB]                   17597

 Extrapolation method: ASPC

 Number of electrons:                                                       2350
 Number of occupied orbitals:                                               1175
 Number of molecular orbitals:                                              1175

 Number of orbital functions:                                               4917
 Number of independent orbital functions:                                   4917


 SCF WAVEFUNCTION OPTIMIZATION

  ----------------------------------- OT ---------------------------------------
  Minimizer      : DIIS                : direct inversion
                                         in the iterative subspace
                                         using   7 DIIS vectors
                                         safer DIIS on
  Preconditioner : FULL_SINGLE_INVERSE : inversion of 
                                         H + eS - 2*(Sc)(c^T*H*c+const)(Sc)^T
  Precond_solver : DEFAULT
  stepsize       :    0.08000000                  energy_gap     :    0.08000000
  eps_taylor     :   0.10000E-15                  max_taylor     :             4
  ----------------------------------- OT ---------------------------------------

  Step     Update method      Time    Convergence         Total energy    Change
  ------------------------------------------------------------------------------
     1 OT DIIS     0.80E-01   16.4     0.00002341     -6684.7312310063 -6.68E+03
     2 OT DIIS     0.80E-01   10.4     0.00011595     -6684.7307834874  4.48E-04
     3 OT DIIS     0.80E-01   10.4     0.00001009     -6684.7312729164 -4.89E-04
     4 OT DIIS     0.80E-01   10.6     0.00000878     -6684.7312798521 -6.94E-06

  *** SCF run converged in     4 steps ***


  Electronic density on regular grids:      -2349.9999999953        0.0000000047
  Core density on regular grids:             2349.9999999989       -0.0000000011
  Total charge density on r-space grids:        0.0000000036
  Total charge density g-space grids:           0.0000000036

  Overlap energy of the core charge distribution:               0.00001641556771
  Self energy of the core charge distribution:             -15464.48285609965569
  Core Hamiltonian energy:                                   4104.48798226784493
  Hartree energy:                                            5946.79845243708951
  Exchange-correlation energy:                              -1269.95757228170078
  Dispersion energy:                                           -1.57730259124522

  Total energy:                                             -6684.73127985209885

  outer SCF iter =    1 RMS gradient =   0.88E-05 energy =      -6684.7312798521
  outer SCF loop converged in   1 iterations or    4 steps


 ENERGY| Total FORCE_EVAL ( QS ) energy [hartree]          -6684.731292471050438

 MD| ***************************************************************************
 MD| Step number                                                               8
 MD| Time [fs]                                                          2.000000
 MD| Conserved quantity [hartree]                            -0.668303007271E+04
 MD| ---------------------------------------------------------------------------
 MD|                                          Instantaneous             Averages
 MD| CPU time per MD step [s]                     82.409642           376.625394
 MD| Energy drift per atom [K]          -0.129374968303E+01  -0.761516083823E+00
 MD| Potential energy [hartree]         -0.668473129247E+04  -0.668477625159E+04
 MD| Kinetic energy [hartree]            0.173931796279E+01   0.182372253130E+01
 MD| Temperature [K]                             948.588113           994.620622
 MD| Pressure [bar]                     -1.685083178794E+03  -1.556846331966E+03
 MD| ***************************************************************************
 MD| Estimated peak process memory after this step [MiB]                   17597

 Extrapolation method: ASPC

 Number of electrons:                                                       2350
 Number of occupied orbitals:                                               1175
 Number of molecular orbitals:                                              1175

 Number of orbital functions:                                               4917
 Number of independent orbital functions:                                   4917


 SCF WAVEFUNCTION OPTIMIZATION

  ----------------------------------- OT ---------------------------------------
  Minimizer      : DIIS                : direct inversion
                                         in the iterative subspace
                                         using   7 DIIS vectors
                                         safer DIIS on
  Preconditioner : FULL_SINGLE_INVERSE : inversion of 
                                         H + eS - 2*(Sc)(c^T*H*c+const)(Sc)^T
  Precond_solver : DEFAULT
  stepsize       :    0.08000000                  energy_gap     :    0.08000000
  eps_taylor     :   0.10000E-15                  max_taylor     :             4
  ----------------------------------- OT ---------------------------------------

  Step     Update method      Time    Convergence         Total energy    Change
  ------------------------------------------------------------------------------
     1 OT DIIS     0.80E-01   16.5     0.00003026     -6684.7203705491 -6.68E+03
     2 OT DIIS     0.80E-01   10.2     0.00013698     -6684.7197109122  6.60E-04
     3 OT DIIS     0.80E-01   10.4     0.00001620     -6684.7204278689 -7.17E-04
     4 OT DIIS     0.80E-01   10.2     0.00001243     -6684.7204416466 -1.38E-05
     5 OT DIIS     0.80E-01   10.6     0.00000669     -6684.7204533393 -1.17E-05

  *** SCF run converged in     5 steps ***


  Electronic density on regular grids:      -2349.9999999955        0.0000000045
  Core density on regular grids:             2349.9999999989       -0.0000000011
  Total charge density on r-space grids:        0.0000000034
  Total charge density g-space grids:           0.0000000034

  Overlap energy of the core charge distribution:               0.00001420661914
  Self energy of the core charge distribution:             -15464.48285609965569
  Core Hamiltonian energy:                                   4104.45164548752473
  Hartree energy:                                            5946.82958039844380
  Exchange-correlation energy:                              -1269.94149375469033
  Dispersion energy:                                           -1.57734357757612

  Total energy:                                             -6684.72045333933511

  outer SCF iter =    1 RMS gradient =   0.67E-05 energy =      -6684.7204533393
  outer SCF loop converged in   1 iterations or    5 steps


 ENERGY| Total FORCE_EVAL ( QS ) energy [hartree]          -6684.720466481381663

 MD| ***************************************************************************
 MD| Step number                                                               9
 MD| Time [fs]                                                          2.250000
 MD| Conserved quantity [hartree]                            -0.668303016246E+04
 MD| ---------------------------------------------------------------------------
 MD|                                          Instantaneous             Averages
 MD| CPU time per MD step [s]                     92.906986           345.101126
 MD| Energy drift per atom [K]          -0.136697786330E+01  -0.828789614875E+00
 MD| Potential energy [hartree]         -0.668472046648E+04  -0.668477005325E+04
 MD| Kinetic energy [hartree]            0.168965090425E+01   0.180882568385E+01
 MD| Temperature [K]                             921.500724           986.496189
 MD| Pressure [bar]                     -1.770645355665E+03  -1.580601779043E+03
 MD| ***************************************************************************
 MD| Estimated peak process memory after this step [MiB]                   17597

 Extrapolation method: ASPC

 Number of electrons:                                                       2350
 Number of occupied orbitals:                                               1175
 Number of molecular orbitals:                                              1175

 Number of orbital functions:                                               4917
 Number of independent orbital functions:                                   4917


 SCF WAVEFUNCTION OPTIMIZATION

  ----------------------------------- OT ---------------------------------------
  Minimizer      : DIIS                : direct inversion
                                         in the iterative subspace
                                         using   7 DIIS vectors
                                         safer DIIS on
  Preconditioner : FULL_SINGLE_INVERSE : inversion of 
                                         H + eS - 2*(Sc)(c^T*H*c+const)(Sc)^T
  Precond_solver : DEFAULT
  stepsize       :    0.08000000                  energy_gap     :    0.08000000
  eps_taylor     :   0.10000E-15                  max_taylor     :             4
  ----------------------------------- OT ---------------------------------------

  Step     Update method      Time    Convergence         Total energy    Change
  ------------------------------------------------------------------------------
     1 OT DIIS     0.80E-01   16.2     0.00002495     -6684.7112317915 -6.68E+03
     2 OT DIIS     0.80E-01   10.3     0.00011873     -6684.7107485072  4.83E-04
     3 OT DIIS     0.80E-01   10.3     0.00001485     -6684.7112733576 -5.25E-04
     4 OT DIIS     0.80E-01   10.6     0.00000782     -6684.7112863507 -1.30E-05

  *** SCF run converged in     4 steps ***


  Electronic density on regular grids:      -2349.9999999962        0.0000000038
  Core density on regular grids:             2349.9999999989       -0.0000000011
  Total charge density on r-space grids:        0.0000000027
  Total charge density g-space grids:           0.0000000027

  Overlap energy of the core charge distribution:               0.00001203397795
  Self energy of the core charge distribution:             -15464.48285609965569
  Core Hamiltonian energy:                                   4104.41156944127670
  Hartree energy:                                            5946.86212003245055
  Exchange-correlation energy:                              -1269.92477753807657
  Dispersion energy:                                           -1.57735422064749

  Total energy:                                             -6684.71128635067544

  outer SCF iter =    1 RMS gradient =   0.78E-05 energy =      -6684.7112863507
  outer SCF loop converged in   1 iterations or    4 steps


 ENERGY| Total FORCE_EVAL ( QS ) energy [hartree]          -6684.711296593208317

 MD| ***************************************************************************
 MD| Step number                                                              10
 MD| Time [fs]                                                          2.500000
 MD| Conserved quantity [hartree]                            -0.668303023795E+04
 MD| ---------------------------------------------------------------------------
 MD|                                          Instantaneous             Averages
 MD| CPU time per MD step [s]                     82.085373           318.799551
 MD| Energy drift per atom [K]          -0.142857845667E+01  -0.888768499054E+00
 MD| Potential energy [hartree]         -0.668471129659E+04  -0.668476417758E+04
 MD| Kinetic energy [hartree]            0.175686867668E+01   0.180362998313E+01
 MD| Temperature [K]                             958.159910           983.662561
 MD| Pressure [bar]                     -1.685483683679E+03  -1.591089969507E+03
 MD| ***************************************************************************
 MD| Estimated peak process memory after this step [MiB]                   17657

 Extrapolation method: ASPC

 Number of electrons:                                                       2350
 Number of occupied orbitals:                                               1175
 Number of molecular orbitals:                                              1175

 Number of orbital functions:                                               4917
 Number of independent orbital functions:                                   4917


 SCF WAVEFUNCTION OPTIMIZATION

  ----------------------------------- OT ---------------------------------------
  Minimizer      : DIIS                : direct inversion
                                         in the iterative subspace
                                         using   7 DIIS vectors
                                         safer DIIS on
  Preconditioner : FULL_SINGLE_INVERSE : inversion of 
                                         H + eS - 2*(Sc)(c^T*H*c+const)(Sc)^T
  Precond_solver : DEFAULT
  stepsize       :    0.08000000                  energy_gap     :    0.08000000
  eps_taylor     :   0.10000E-15                  max_taylor     :             4
  ----------------------------------- OT ---------------------------------------

  Step     Update method      Time    Convergence         Total energy    Change
  ------------------------------------------------------------------------------
     1 OT DIIS     0.80E-01   16.2     0.00002461     -6684.7032159113 -6.68E+03
     2 OT DIIS     0.80E-01   10.4     0.00009808     -6684.7028668587  3.49E-04
     3 OT DIIS     0.80E-01   10.2     0.00001966     -6684.7032624052 -3.96E-04
     4 OT DIIS     0.80E-01   10.4     0.00000886     -6684.7032813267 -1.89E-05

  *** SCF run converged in     4 steps ***


  Electronic density on regular grids:      -2349.9999999967        0.0000000033
  Core density on regular grids:             2349.9999999989       -0.0000000011
  Total charge density on r-space grids:        0.0000000022
  Total charge density g-space grids:           0.0000000022

  Overlap energy of the core charge distribution:               0.00001041991833
  Self energy of the core charge distribution:             -15464.48285609965569
  Core Hamiltonian energy:                                   4104.37154249120886
  Hartree energy:                                            5946.89366190746932
  Exchange-correlation energy:                              -1269.90830465174577
  Dispersion energy:                                           -1.57733539391572

  Total energy:                                             -6684.70328132672057

  outer SCF iter =    1 RMS gradient =   0.89E-05 energy =      -6684.7032813267
[...]
 flops    13 x    14 x    23         336947498888       0.0%      0.0%    100.0%     
 flops    14 x    13 x    23         337783602156       0.0%      0.0%    100.0%     
 flops    32 x    23 x     9         385750812672       0.0%      0.0%    100.0%     
 flops    23 x    32 x     9         385750812672       0.0%      0.0%    100.0%     
 flops     9 x    32 x    23         480445820928       0.0%      0.0%    100.0%     
 flops     9 x    23 x    32         480445820928       0.0%      0.0%    100.0%     
 flops    13 x    13 x    23         654200983046       0.0%      0.0%    100.0%     
 flops    14 x    23 x    14         791148428112       0.0%      0.0%    100.0%     
 flops    13 x    23 x     9         949463167302       0.0%      0.0%    100.0%     
 flops     9 x    23 x    13         949463167302       0.0%      0.0%    100.0%     
 flops    32 x    23 x    14         975092332032       0.0%      0.0%    100.0%     
 flops    23 x    32 x    14         975092332032       0.0%      0.0%    100.0%     
 flops     9 x     9 x    32        1062892357632       0.0%      0.0%    100.0%     
 flops    14 x    32 x    23        1214460269568       0.0%      0.0%    100.0%     
 flops    14 x    23 x    32        1214460269568       0.0%      0.0%    100.0%     
 flops    32 x    32 x    23        1917174251520       0.0%      0.0%    100.0%     
 flops    32 x    23 x    32        1917174251520       0.0%      0.0%    100.0%     
 flops    23 x    32 x    32        1917174251520       0.0%      0.0%    100.0%     
 flops    14 x    23 x    13        2175286730344       0.0%      0.0%    100.0%     
 flops    13 x    23 x    14        2175286730344       0.0%      0.0%    100.0%     
 flops     9 x    14 x    32        2620487987712       0.0%      0.0%    100.0%     
 flops    14 x     9 x    32        2622832773120       0.0%      0.0%    100.0%     
 flops    32 x    23 x    13        3029751174528       0.0%      0.0%    100.0%     
 flops    23 x    32 x    13        3029751174528       0.0%      0.0%    100.0%     
 flops    13 x    32 x    23        3773501551872       0.0%      0.0%    100.0%     
 flops    13 x    23 x    32        3773501551872       0.0%      0.0%    100.0%     
 flops    13 x    23 x    13        4991252947928       0.0%      0.0%    100.0%     
 flops     9 x    32 x     9        6330190528512       0.0%      0.0%    100.0%     
 flops    14 x    14 x    32        6553117412352       0.0%      0.0%    100.0%     
 flops    13 x     9 x    32        7669512055296       0.0%      0.0%    100.0%     
 flops     9 x    13 x    32        7710033517056       0.0%      0.0%    100.0%     
 flops    14 x    32 x     9       15955771474944       0.0%      0.0%    100.0%     
 flops     9 x    32 x    14       15955771474944       0.0%      0.0%    100.0%     
 flops    13 x    14 x    32       16876674726912       0.0%      0.0%    100.0%     
 flops    14 x    13 x    32       16918552594944       0.0%      0.0%    100.0%     
 flops    32 x    32 x     9       19324317007872       0.0%      0.0%    100.0%     
 flops     9 x    32 x    32       24070534594560       0.0%      0.0%    100.0%     
 flops    13 x    13 x    32       32766936194304       0.0%      0.0%    100.0%     
 flops    14 x    32 x    14       39626216921088       0.0%      0.0%    100.0%     
 flops    13 x    32 x     9       47555720379648       0.0%      0.0%    100.0%     
 flops     9 x    32 x    13       47555720379648       0.0%      0.0%    100.0%     
 flops    32 x    32 x    14       48847579103232       0.0%      0.0%    100.0%     
 flops    14 x    32 x    32       60844962447360       0.0%      0.0%    100.0%     
 flops    32 x    32 x    32       96025423380480       0.0%      0.0%    100.0%     
 flops    14 x    32 x    13      108953491885056       0.0%      0.0%    100.0%     
 flops    13 x    32 x    14      108953491885056       0.0%      0.0%    100.0%     
 flops    32 x    32 x    13      151776406499328       0.0%      0.0%    100.0%     
 flops    13 x    32 x    32      189053990461440       0.0%      0.0%    100.0%     
 flops    13 x    32 x    13      249996669391872       0.0%      0.0%    100.0%     
 flops inhomo. stacks                           0       0.0%      0.0%      0.0%
 flops total                         1.366099E+15       0.0%      0.0%    100.0%
 flops max/rank                      1.366099E+15       0.0%      0.0%    100.0%
 matmuls inhomo. stacks                         0       0.0%      0.0%      0.0%
 matmuls total                        95870626481       0.0%      0.0%    100.0%
 number of processed stacks              13600733       0.0%      0.0%    100.0%
 average stack size                                     0.0       0.0    7048.9
 marketing flops                     1.732953E+15
 -------------------------------------------------------------------------------
 # multiplications                          89315
 max memory usage/rank              19.768316E+09
 # max total images/rank                        1
 # max 3D layers                                1
 # MPI messages exchanged                       0
 -------------------------------------------------------------------------------
 -                                                                             -
 -                      DBCSR MESSAGE PASSING PERFORMANCE                      -
 -                                                                             -
 -------------------------------------------------------------------------------
 ROUTINE             CALLS      AVE VOLUME [Bytes]
 MP_Bcast               69                     12.
 MP_Allreduce       268100                      8.
 MP_Alltoall        309505                6808592.
 MP_ISend           356448                 336570.
 MP_IRecv           356448                 336570.
 -------------------------------------------------------------------------------

 -------------------------------------------------------------------------------
 -                                                                             -
 -                                GRID STATISTICS                              -
 -                                                                             -
 -------------------------------------------------------------------------------
 LP    KERNEL             BACKEND                              COUNT     PERCENT
 4     collocate ortho    GPU                             1007177073      28.64%
 4     integrate ortho    GPU                              961537477      27.34%
 3     collocate ortho    GPU                              644431999      18.32%
 3     integrate ortho    GPU                              615231083      17.49%
 2     collocate ortho    GPU                              106821233       3.04%
 2     integrate ortho    GPU                              101981785       2.90%
 7     integrate ortho    GPU                               45639596       1.30%
 6     integrate ortho    GPU                               29200916       0.83%
 5     integrate ortho    GPU                                4839448       0.14%
 0     collocate general  CPU                                  77787       0.00%
 3     integrate general  CPU                                  77787       0.00%
 -------------------------------------------------------------------------------

 -------------------------------------------------------------------------------
 -                                                                             -
 -                          OFFLOAD MEMPOOL STATISTICS                         -
 -                                                                             -
 -------------------------------------------------------------------------------
 Memory consumption                Number of allocations  Used [MiB]  Size [MiB]
 Device                                               24         619         620
 Host                                                 16         480         481
 -------------------------------------------------------------------------------

 MEMORY| Estimated peak process memory [MiB]                               18853

 -------------------------------------------------------------------------------
 -                                                                             -
 -                         MESSAGE PASSING PERFORMANCE                         -
 -                                                                             -
 -------------------------------------------------------------------------------

 ROUTINE             CALLS      AVE VOLUME [Bytes]
 MP_Group                4
 MP_Bcast           105699                  10243.
 MP_Allreduce       350311                   8466.
 MP_Sync              2312
 -------------------------------------------------------------------------------


 -------------------------------------------------------------------------------
 -                                                                             -
 -                           R E F E R E N C E S                               -
 -                                                                             -
 -------------------------------------------------------------------------------
 
 CP2K version 2025.2 (Development Version), the CP2K developers group (2025).
 CP2K is freely available from https://www.cp2k.org/ .
 
 T. D. Kuehne, M. Iannuzzi, M. Del Ben, V. V. Rybkin, P. Seewald, F. Stein, T. 
 Laino, R. Z. Khaliullin, O. Schuett, F. Schiffmann, D. Golze, J. Wilhelm, S. 
 Chulkov, M. H. Bani-Hashemian, V. Weber, U. Borstnik, M. Taillefumier, A. S. 
 Jakobovits, A. Lazzaro, H. Pabst, T. Mueller, R. Schade, M. Guidon, S. 
 Andermatt, N. Holmberg, G. K. Schenter, A. Hehn, A. Bussy, F. Belleflamme, G. 
 Tabacchi, A. Gloess, M. Lass, I. Bethune, C. J. Mundy, C. Plessl, M. Watkins, 
 J. VandeVondele, M. Krack, J. Hutter.
 J. Chem. Phys. 152, 194103 (2020).
 CP2K: An electronic structure and molecular dynamics software package - 
 Quickstep: Efficient and accurate electronic structure calculations.
 https://doi.org/10.1063/5.0007045

 E. Caldeweyher, J. M. Mewes, S. Ehlert, S. Grimme.
 Phys. Chem. Chem. Phys. 22, 8499-8512 (2020).
 Extension and evaluation of the D4 London-dispersion model for periodic 
 systems.
 https://doi.org/10.1039/d0cp00502a

 E. Caldeweyher, S. Ehlert, A. Hansen, H. Neugebauer, S. Spicher, C. Bannwarth, 
 S. Grimme.
 J. Chem. Phys. 150, 154122 (2019).
 A generally applicable atomic-charge dependent London dispersion correction.
 https://doi.org/10.1063/1.5090222

 E. Caldeweyher, C. Bannwarth, S. Grimme.
 J. Chem. Phys. 147, 034112 (2017).
 Extension of the D3 dispersion coefficient model.
 https://doi.org/10.1063/1.4993215

 O. Schuett, P. Messmer, J. Hutter, J. VandeVondele.
 Electronic Structure Calculations on Graphics Processing Units, 173-190 (2016).
 GPU-Accelerated Sparse Matrix-Matrix Multiplication for Linear Scaling Density 
 Functional Theory.
 https://doi.org/10.1002/9781118670712.ch8

 A. Heinecke, G. Henry, M. Hutchinson, H. Pabst.
 Proceedings of Intl. Supercomputing Conference, 981-991 (2016).
 LIBXSMM: Accelerating Small Matrix Multiplications by Runtime Code Generation.
 https://doi.org/10.1109/SC.2016.83

 J. Hutter, M. Iannuzzi, F. Schiffmann, J. VandeVondele.
 WIREs Comput Mol Sci. 4, 15-25 (2014).
 CP2K: atomistic simulations of condensed matter systems.
 https://doi.org/10.1002/wcms.1159

 U. Borstnik, J. VandeVondele, V. Weber, J. Hutter.
 Parallel Comput. 40, 47-58 (2014).
 Sparse matrix multiplication: The distributed block-compressed sparse row 
 library.
 https://doi.org/10.1016/j.parco.2014.03.012

 A. Marek, V. Blum, R. Johanni, V. Havu, B. Lang, T. Auckenthaler, A. Heinecke, 
 H. Bungartz, H. Lederer.
 J. Phys. Condens. Matter 26, 213201 (2014).
 The ELPA library: scalable parallel eigenvalue solutions for electronic 
 structure theory and computational science.
 https://doi.org/10.1088/0953-8984/26/21/213201

 G. Bussi, D. Donadio, M. Parrinello.
 J. Chem. Phys. 126, 014101 (2007).
 Canonical sampling through velocity rescaling.
 https://doi.org/10.1063/1.2408420

 J. VandeVondele, J. Hutter.
 J. Chem. Phys. 127, 114105 (2007).
 Gaussian basis sets for accurate calculations on molecular systems in gas and 
 condensed phases.
 https://doi.org/10.1063/1.2770708

 T. D. Khne, M. Krack, F. R. Mohamed, M. Parrinello.
 Phys. Rev. Lett. 98, 066401 (2007).
 Efficient and accurate Car-Parrinello-like approach to Born-Oppenheimer 
 molecular dynamics.
 https://doi.org/10.1103/PhysRevLett.98.066401

 J. VandeVondele, M. Krack, F. Mohamed, M. Parrinello, T. Chassaing, J. Hutter.
 Comput. Phys. Commun. 167, 103-128 (2005).
 QUICKSTEP: Fast and accurate density functional calculations using a mixed 
 Gaussian and plane waves approach.
 https://doi.org/10.1016/j.cpc.2004.12.014

 M. Krack.
 Theor. Chem. Acc. 114, 145-152 (2005).
 Pseudopotentials for H to Kr optimized for gradient-corrected 
 exchange-correlation functionals.
 https://doi.org/10.1007/s00214-005-0655-y

 M. Frigo, S. G. Johnson.
 Proc. IEEE 93, 216-231 (2005).
 The design and implementation of FFTW3.
 https://doi.org/10.1109/JPROC.2004.840301

 J. Kolafa.
 J. Comput. Chem. 25, 335-342 (2004).
 Time-reversible always stable predictor-corrector method for molecular dynamics 
 of polarizable molecules.
 https://doi.org/10.1002/jcc.10385

 J. VandeVondele, J. Hutter.
 J. Chem. Phys. 118, 4365-4369 (2003).
 An efficient orbital transformation method for electronic structure 
 calculations.
 https://doi.org/10.1063/1.1543154

 C. Hartwigsen, S. Goedecker, J. Hutter.
 Phys. Rev. B 58, 3641-3662 (1998).
 Relativistic separable dual-space Gaussian pseudopotentials from H to Rn.
 https://doi.org/10.1103/PhysRevB.58.3641

 G. Lippert, J. Hutter, M. Parrinello.
 Mol. Phys. 92, 477-487 (1997).
 A hybrid Gaussian and plane wave density functional scheme.
 https://doi.org/10.1080/002689797170220

 S. Goedecker, M. Teter, J. Hutter.
 Phys. Rev. B 54, 1703-1710 (1996).
 Separable dual-space Gaussian pseudopotentials.
 https://doi.org/10.1103/PhysRevB.54.1703

 J. P. Perdew, K. Burke, M. Ernzerhof.
 Phys. Rev. Lett. 77, 3865-3868 (1996).
 Generalized gradient approximation made simple.
 https://doi.org/10.1103/PhysRevLett.77.3865


 -------------------------------------------------------------------------------
 -                                                                             -
 -                                T I M I N G                                  -
 -                                                                             -
 -------------------------------------------------------------------------------
 SUBROUTINE                       CALLS  ASD         SELF TIME        TOTAL TIME
                                MAXIMUM       AVERAGE  MAXIMUM  AVERAGE  MAXIMUM
 CP2K                                 1  1.0     1.43     1.43 54935.43 54935.43
 qs_mol_dyn_low                       1  2.0     0.04     0.04 54923.91 54923.91
 qs_forces                          201  4.0     0.10     0.10 54908.96 54908.96
 velocity_verlet                    200  3.0     5.55     5.55 52577.64 52577.64
 qs_energies                        201  5.0     0.03     0.03 50335.65 50335.65
 scf_env_do_scf                     201  6.0     0.03     0.03 48334.01 48334.01
 scf_env_do_scf_inner_loop         4238  6.9     6.48     6.48 45168.60 45168.60
 rebuild_ks_matrix                 4439  8.8     0.03     0.03 31969.94 31969.94
 qs_ks_build_kohn_sham_matrix      4439  9.8     1.45     1.45 31969.91 31969.91
 qs_ks_update_qs_env               4441  8.0     0.10     0.10 27836.27 27836.27
 sum_up_and_integrate              4439 10.8     0.29     0.29 13825.38 13825.38
 integrate_v_rspace                4439 11.8    54.30    54.30 13703.63 13703.63
 qs_vxc_create                     4439 10.8     0.15     0.15 13226.13 13226.13
 xc_vxc_pw_create                  4439 11.8  3672.48  3672.48 13225.98 13225.98
 grid_integrate_task_list          4439 12.8 12585.55 12585.55 12585.55 12585.55
 qs_rho_update_rho_low             4439  8.0     0.04     0.04 12370.76 12370.76
 calculate_rho_elec                4439  9.0   424.04   424.04 12370.72 12370.72
 grid_collocate_task_list          4439 10.0 10206.56 10206.56 10206.56 10206.56
 qs_scf_new_mos                    4238  7.9     0.06     0.06  6862.22  6862.22
 qs_scf_loop_do_ot                 4238  8.9     0.05     0.05  6862.16  6862.16
 ot_scf_mini                       4238  9.9     0.23     0.23  6386.93  6386.93
 fft_wrap_pw1pw2                  75664 13.2     3.04     3.04  6291.91  6291.91
 dbcsr_multiply_generic           89315 13.0    29.20    29.20  6166.24  6166.24
 fft_wrap_pw1pw2_200              49030 14.6     0.35     0.35  5934.01  5934.01
 xc_rho_set_and_dset_create        4439 12.8   757.27   757.27  5652.03  5652.03
 xc_pw_derive                     26634 13.8     0.68     0.68  5090.66  5090.66
 qs_ks_update_qs_env_forces         201  5.0     0.00     0.00  4297.88  4297.88
 multiply_cannon                  89315 14.0   172.08   172.08  3812.43  3812.43
 ot_mini                           4238 10.9     0.05     0.05  3581.99  3581.99
 xc_pw_divergence                  4439 12.8     0.39     0.39  3550.34  3550.34
 pw_poisson_solve                  4439 10.8     0.33     0.33  3330.84  3330.84
 multiply_cannon_loop             89315 15.0   280.26   280.26  3308.51  3308.51
 pw_gpu_c1dr3d_3d                 39951 15.5  3249.49  3249.49  3249.49  3249.49
 init_scf_loop                      203  7.0     0.01     0.01  3116.21  3116.21
 pw_gpu_r3dc1d_3d                 35713 14.8  3038.84  3038.84  3038.84  3038.84
 multiply_cannon_multrec          89315 16.0  1841.37  1841.37  2646.20  2646.20
 qs_ot_get_derivative              4238 11.9     0.07     0.07  2527.09  2527.09
 pw_derive                        39951 14.1  2230.51  2230.51  2230.51  2230.51
 xc_functional_eval                4439 13.8     0.09     0.09  2063.97  2063.97
 pbe_lda_eval                      4439 14.8  2063.88  2063.88  2063.88  2063.88
 make_m2s                        178630 14.0     3.72     3.72  1913.73  1913.73
 pw_integral_ab_c1d_c1d_gs         5645 11.4  1822.98  1822.98  1822.98  1822.98
 make_images                     178630 15.0   505.02   505.02  1818.71  1818.71
 density_rs2pw                     4439 10.0     0.65     0.65  1740.12  1740.12
 qs_ot_get_p                       4441 10.9     0.06     0.06  1664.72  1664.72
 prepare_preconditioner             203  8.0     0.00     0.00  1627.63  1627.63
 make_preconditioner                203  9.0     0.01     0.01  1627.63  1627.63
 pw_poisson_set                    4440 11.8     0.42     0.42  1486.00  1486.00
 pw_copy                          66585 13.3  1477.12  1477.12  1477.12  1477.12
 qs_ot_p2m_diag                    2308 11.9    71.36    71.36  1283.17  1283.17
 init_scf_run                       201  6.0     0.00     0.00  1259.49  1259.49
 scf_env_initial_rho_setup          201  7.0     0.00     0.00  1259.49  1259.49
 wfi_extrapolate                    201  8.0     0.72     0.72  1216.49  1216.49
 make_full_inverse_cholesky         203 10.0     2.19     2.19  1214.26  1214.26
 -------------------------------------------------------------------------------

 The number of warnings for this run is : 0
 
 -------------------------------------------------------------------------------
  **** **** ******  **  PROGRAM ENDED AT                 2025-11-18 19:24:28.972
 ***** ** ***  *** **   PROGRAM RAN ON                              4838f1d24d69
 **    ****   ******    PROGRAM RAN BY                                 <unknown>
 ***** **    ** ** **   PROGRAM PROCESS ID                                   638
  **** **  *******  **  PROGRAM STOPPED IN                             /mnt/cp2k
