#     Step Nr.          Time[fs]        Kin.[a.u.]          Temp[K]            Pot.[a.u.]        Cons Qty[a.u.]        UsedTime[s]
         0            0.000000         1.784079260       973.000000000     -6684.812566406     -6683.028487146         0.000000000
         1            0.250000         1.793818294       978.311468261     -6684.812009502     -6683.028681853      2470.228004406
         2            0.500000         1.837089153      1001.910501377     -6684.807141338     -6683.028920066        81.352195007
         3            0.750000         1.841320369      1004.218119438     -6684.798392815     -6683.029172682        71.165532470
         4            1.000000         1.863890175      1016.527225575     -6684.786507245     -6683.029394407        71.313265903
         5            1.250000         1.845586442      1006.544747911     -6684.772644048     -6683.029590432        82.382931916
         6            1.500000         1.869316838      1019.486815603     -6684.758056773     -6683.029779488        82.164635568
         7            1.750000         1.799441018       981.377985822     -6684.743968555     -6683.029946492        71.986944189
         8            2.000000         1.739317963       948.588112767     -6684.731292471     -6683.030072711        82.409642072
         9            2.250000         1.689650904       921.500724300     -6684.720466481     -6683.030162456        92.906985567
        10            2.500000         1.756868677       958.159909828     -6684.711296593     -6683.030237951        82.085372714
        11            2.750000         1.811201411       987.791861712     -6684.703295963     -6683.030321672        82.123454676
        12            3.000000         1.840956881      1004.019880671     -6684.695997622     -6683.030427731        92.253114862
        13            3.250000         1.818484875       991.764112625     -6684.688916215     -6683.030528462        81.599806346
        14            3.500000         1.792755994       977.732112068     -6684.681804453     -6683.030602281        83.173820745
        15            3.750000         1.759711523       959.710339496     -6684.674390630     -6683.030682450        92.583207013
        16            4.000000         1.755939270       957.653030767     -6684.666315354     -6683.030776717        82.454788274
        17            4.250000         1.778411714       969.909037752     -6684.657402452     -6683.030829880        82.866759592
        18            4.500000         1.710584291       932.917361544     -6684.648089961     -6683.030817930       102.619902799
        19            4.750000         1.788844088       975.598639016     -6684.639146133     -6683.030952475        93.192158885
        20            5.000000         1.771337442       966.050875942     -6684.628903208     -6683.030866470        92.740573385
        21            5.250000         1.769747158       965.183567907     -6684.616299656     -6683.030838103       124.468281216
        22            5.500000         1.775312163       968.218606532     -6684.603187710     -6683.030825238        93.104718692
        23            5.750000         1.799132979       981.209987906     -6684.589845790     -6683.030808899       125.400997850
        24            6.000000         1.800981011       982.217866185     -6684.576689737     -6683.030861441       103.586597206
        25            6.250000         1.815638630       990.211829366     -6684.564130109     -6683.030814607       103.553889836
        26            6.500000         1.803126719       983.388091126     -6684.552396156     -6683.030937128       145.475346596
        27            6.750000         1.770877254       965.799898966     -6684.541449564     -6683.031219071       123.986777151
        28            7.000000         1.821450194       993.381336425     -6684.530397585     -6683.031377432       124.260113736
        29            7.250000         1.816965307       990.935371223     -6684.519038012     -6683.031637174       177.400518628
        30            7.500000         1.844140200      1005.755997272     -6684.505822173     -6683.031659550       167.854001826
        31            7.750000         1.731561196       944.357732293     -6684.490746587     -6683.031578841       167.435904686
        32            8.000000         1.751174275       955.054300678     -6684.474732082     -6683.031483280       146.391698021
        33            8.250000         1.726329558       941.504504809     -6684.459597704     -6683.031383883       188.965911550
        34            8.500000         1.726604073       941.654219762     -6684.448166531     -6683.031235986       146.745643850
        35            8.750000         1.750668180       954.778287076     -6684.442368424     -6683.031203125       177.747187624
        36            9.000000         1.813994103       989.314938212     -6684.442273556     -6683.031419110       177.319491813
        37            9.250000         1.746290555       952.390820817     -6684.445390315     -6683.031563570       167.706593647
        38            9.500000         1.730109250       943.565870929     -6684.448799255     -6683.031496799       146.362578189
        39            9.750000         1.766955850       963.661245807     -6684.450886643     -6683.031398350       168.138723094
        40           10.000000         1.777719312       969.531416085     -6684.451235276     -6683.031487502       167.750598229
        41           10.250000         1.745932357       952.195466675     -6684.449809865     -6683.031647001       169.393104607
        42           10.500000         1.825866921       995.790128067     -6684.446861616     -6683.031608411       180.412493078
        43           10.750000         1.888417780      1029.904075071     -6684.442771820     -6683.031568580       177.079767301
        44           11.000000         1.794739494       978.813871768     -6684.437942937     -6683.031587570       147.003846492
        45           11.250000         1.832087617       999.182766941     -6684.432757665     -6683.031505750       169.192689321
        46           11.500000         1.805897657       984.899303363     -6684.427619262     -6683.031539127       211.162039570
        47           11.750000         1.778669792       970.049788041     -6684.422858685     -6683.031474980       125.874438857
        48           12.000000         1.731483352       944.315277625     -6684.418517405     -6683.031287037       212.422441843
        49           12.250000         1.788063895       975.173138065     -6684.414900634     -6683.031231721       148.139843321
        50           12.500000         1.765937046       963.105611317     -6684.411784423     -6683.031258680       190.030178480
        51           12.750000         1.811519788       987.965498020     -6684.408856950     -6683.031387961       200.415455475
        52           13.000000         1.823259887       994.368305439     -6684.405669824     -6683.031531801       157.432618115
        53           13.250000         1.871377987      1020.610924058     -6684.401723190     -6683.031526735       157.767731281
        54           13.500000         1.843247513      1005.269144056     -6684.397056869     -6683.031683737       221.530073352
        55           13.750000         1.839050691      1002.980283789     -6684.391456698     -6683.031775014       178.361027779
        56           14.000000         1.848212554      1007.976974804     -6684.384996356     -6683.031728597       222.282611411
        57           14.250000         1.791072045       976.813720852     -6684.377791755     -6683.031557654       190.312123289
        58           14.500000         1.877073820      1023.717313424     -6684.370401975     -6683.031447290       276.080103211
        59           14.750000         1.853835817      1011.043786721     -6684.363007927     -6683.031537550       182.457432582
        60           15.000000         1.838756132      1002.819637748     -6684.355531528     -6683.031553785       201.386160994
        61           15.250000         1.883499063      1027.221508379     -6684.347829109     -6683.031594267       203.522773677
        62           15.500000         1.813652247       989.128496789     -6684.340069716     -6683.031684210       212.168108037
        63           15.750000         1.796505211       979.776857606     -6684.332452228     -6683.031620794       190.332422986
        64           16.000000         1.773151146       967.040032343     -6684.325014794     -6683.031429041       211.297319700
        65           16.250000         1.832316204       999.307433738     -6684.317768416     -6683.031125484       126.769412044
        66           16.500000         1.864195760      1016.693885450     -6684.310971648     -6683.031021633       213.226144012
        67           16.750000         1.884802176      1027.932199649     -6684.304800351     -6683.031123126       193.318147731
        68           17.000000         1.844487117      1005.945198247     -6684.299273686     -6683.031205164       190.062471201
        69           17.250000         1.778172701       969.778684827     -6684.294712737     -6683.031421957       192.604964445
        70           17.500000         1.735625821       946.574494765     -6684.291264721     -6683.031697507       182.905686060
        71           17.750000         1.834399215      1000.443464979     -6684.288804721     -6683.031924601       205.732953046
        72           18.000000         1.713857680       934.702600131     -6684.286998932     -6683.031787069       213.158679267
        73           18.250000         1.690983342       922.227408276     -6684.285785159     -6683.031434996       266.504053811
        74           18.500000         1.613384813       879.906772684     -6684.285379837     -6683.031402877       183.954599132
        75           18.750000         1.691497226       922.507669884     -6684.284987186     -6683.031415225       149.389500762
        76           19.000000         1.728124986       942.483694501     -6684.283969076     -6683.031523087       243.785450451
        77           19.250000         1.726045009       941.349317570     -6684.281523860     -6683.031449142       148.618590830
        78           19.500000         1.704558994       929.631288858     -6684.277627736     -6683.031275930       266.563974758
        79           19.750000         1.687747450       920.462619688     -6684.272664740     -6683.031127008       179.572011690
        80           20.000000         1.747888707       953.262419836     -6684.267380924     -6683.030953927       222.170190509
        81           20.250000         1.704443287       929.568184380     -6684.261893745     -6683.031014718       191.163205303
        82           20.500000         1.670044679       910.807893873     -6684.255721103     -6683.030939862       244.286373010
        83           20.750000         1.657333834       903.875661291     -6684.250235383     -6683.031102211       190.892488712
        84           21.000000         1.697349138       925.699181942     -6684.245984804     -6683.031248765       232.547948504
        85           21.250000         1.683953732       918.393604306     -6684.243207968     -6683.031428204       231.919412128
        86           21.500000         1.696455530       925.211826581     -6684.241956784     -6683.031535776       214.086844300
        87           21.750000         1.716569585       936.181617258     -6684.242223157     -6683.031505223       278.469354261
        88           22.000000         1.697674845       925.876816123     -6684.244192363     -6683.031565414       180.989016388
        89           22.250000         1.696366275       925.163148788     -6684.247516203     -6683.031567567       244.002093194
        90           22.500000         1.759066596       959.358609413     -6684.251819420     -6683.031692077       264.602643432
        91           22.750000         1.805839136       984.867387336     -6684.256661998     -6683.031553328       193.186931880
        92           23.000000         1.801104459       982.285192216     -6684.261841890     -6683.032333581       226.673285434
        93           23.250000         1.842551170      1004.889372973     -6684.261760961     -6683.031919442       126.814401801
        94           23.500000         1.826061978       995.896507982     -6684.256674577     -6683.031738361       302.879067350
        95           23.750000         1.771936186       966.377418298     -6684.247122852     -6683.031623827       199.075680720
        96           24.000000         1.761979154       960.947058697     -6684.235376361     -6683.031419602       221.707878134
        97           24.250000         1.711352465       933.336307501     -6684.224336399     -6683.031152091       220.026486553
        98           24.500000         1.683979885       918.407867197     -6684.217220577     -6683.030823009       178.219116077
        99           24.750000         1.718777961       937.386019997     -6684.216217691     -6683.030741338       265.197770287
       100           25.000000         1.735807667       946.673669644     -6684.221178639     -6683.031184223       170.748093899
       101           25.250000         1.808715595       986.436148596     -6684.228946082     -6683.031451235       211.540762608
       102           25.500000         1.849418278      1008.634552015     -6684.236769026     -6683.031606768       224.907240624
       103           25.750000         1.867036625      1018.243234856     -6684.242936189     -6683.031716024       214.705122984
       104           26.000000         1.826786590       996.291696575     -6684.246979140     -6683.031623050       213.287396453
       105           26.250000         1.795660329       979.316076512     -6684.249900513     -6683.031635010       223.137063064
       106           26.500000         1.781623445       971.660649270     -6684.252734040     -6683.031701895       212.240542726
       107           26.750000         1.737332417       947.505236832     -6684.255899306     -6683.031663554       211.401320130
       108           27.000000         1.768411804       964.455293270     -6684.259793271     -6683.031716618       212.949704708
       109           27.250000         1.718265059       937.106293595     -6684.264007945     -6683.031664145       213.039639306
       110           27.500000         1.653493201       901.781059367     -6684.268247477     -6683.031480344       202.352597861
       111           27.750000         1.657683642       904.066439386     -6684.272251361     -6683.031246791       245.850254120
       112           28.000000         1.702203360       928.346574312     -6684.275692842     -6683.030915027       214.367207506
       113           28.250000         1.673754586       912.831200272     -6684.278569055     -6683.030618477       267.286761481
       114           28.500000         1.694800457       924.309184211     -6684.281175257     -6683.030553554       212.310584274
       115           28.750000         1.636276070       892.391191406     -6684.283945812     -6683.030770793       244.348997236
       116           29.000000         1.662663790       906.782509113     -6684.286981978     -6683.031107009       192.015090079
       117           29.250000         1.674085277       913.011552631     -6684.290532956     -6683.031617173       277.374670949
       118           29.500000         1.677205667       914.713348995     -6684.294203401     -6683.031782743       212.909301547
       119           29.750000         1.726797615       941.759773686     -6684.298113905     -6683.031667427       248.041138357
       120           30.000000         1.727829015       942.322277719     -6684.302428470     -6683.031382935       214.657616979
       121           30.250000         1.777001318       969.139836947     -6684.307269215     -6683.030783357       278.637089585
       122           30.500000         1.837228150      1001.986307740     -6684.313322202     -6683.030447664       247.907818499
       123           30.750000         1.882744478      1026.809973544     -6684.320676992     -6683.030280508       203.302495699
       124           31.000000         1.851701874      1009.879977903     -6684.329711831     -6683.030280448       225.100182464
       125           31.250000         1.938700687      1057.327334892     -6684.340077797     -6683.030470546       229.699181667
       126           31.500000         1.900147424      1036.301180794     -6684.349427700     -6683.030268249       299.856394879
       127           31.750000         2.016544727      1099.781867355     -6684.358624537     -6683.030428777       235.733213228
       128           32.000000         1.964822948      1071.573876443     -6684.366908874     -6683.030600831       224.991667154
       129           32.250000         1.890258648      1030.908046634     -6684.373580395     -6683.030302793       300.346000814
       130           32.500000         1.780410563       970.999168670     -6684.379041428     -6683.029834689       322.956617554
       131           32.750000         1.836663663      1001.678448434     -6684.383598379     -6683.029471130       234.356196584
       132           33.000000         1.905894507      1039.435521551     -6684.387522542     -6683.029508644       280.387926160
       133           33.250000         1.908326959      1040.762130722     -6684.390819874     -6683.030020826       510.385806687
       134           33.500000         1.933006182      1054.221669073     -6684.391893465     -6683.029420711       225.035292091
       135           33.750000         1.944500452      1060.490406795     -6684.392212375     -6683.028949003       298.760362094
       136           34.000000         1.878999095      1024.767318636     -6684.392701476     -6683.029105749       277.319197198
       137           34.250000         1.795916708       979.455899980     -6684.392685425     -6683.028754852       312.607207343
       138           34.500000         1.815327968       990.042400826     -6684.392220563     -6683.027532305       312.896276509
       139           34.750000         1.785980434       974.036861205     -6684.394532622     -6683.028548657       313.226936014
       140           35.000000         1.778868383       970.158095599     -6684.397225545     -6683.029595936       335.423859487
       141           35.250000         1.756338715       957.870879531     -6684.397938195     -6683.028518910       346.069313297
       142           35.500000         1.702624846       928.576444325     -6684.398929209     -6683.027771286       369.440934334
       143           35.750000         1.720968236       938.580550576     -6684.401055222     -6683.028370069       278.276299593
       144           36.000000         1.696994741       925.505901327     -6684.403620566     -6683.029657809       278.674175398
       145           36.250000         1.713692207       934.612354274     -6684.404119556     -6683.028928796       311.447090812
       146           36.500000         1.727970438       942.399407105     -6684.405094241     -6683.028516108       401.702799130
       147           36.750000         1.781830041       971.773322534     -6684.406650251     -6683.028594739       368.593688656
       148           37.000000         1.795970577       979.485278827     -6684.409184429     -6683.029550806       346.459548622
       149           37.250000         1.798306095       980.759022222     -6684.410848383     -6683.029494193       410.524303802
       150           37.500000         1.806154368       985.039308601     -6684.412131393     -6683.029150437       413.373653651
       151           37.750000         1.804231547       983.990641474     -6684.412711697     -6683.028495745       550.938735378
       152           38.000000         1.723832290       940.142546282     -6684.413588539     -6683.028599685       392.220924783
       153           38.250000         1.658924450       904.743150224     -6684.412924631     -6683.027351459       416.055793405
       154           38.500000         1.761336693       960.596673816     -6684.414630015     -6683.028444584       359.485869099
       155           38.750000         1.786207405       974.160646850     -6684.414213292     -6683.027460249       526.516090333
       156           39.000000         1.841904052      1004.536448135     -6684.413962377     -6683.026975943       525.905102454
       157           39.250000         1.737356172       947.518192566     -6684.414784279     -6683.028312312       399.189730546
       158           39.500000         1.718104120       937.018520936     -6684.412859924     -6683.028108115       483.738666796
       159           39.750000         1.796753742       979.912401353     -6684.409573160     -6683.028530283       449.662798077
       160           40.000000         1.746019225       952.242843077     -6684.401491770     -6683.027167720       510.712648870
       161           40.250000         1.758489361       959.043797805     -6684.393107784     -6683.028849154       461.339301345
       162           40.500000         1.733503837       945.417208740     -6684.377409782     -6683.025492406       439.257562565
       163           40.750000         1.756018963       957.696493472     -6684.367832694     -6683.028682497       409.575304950
       164           41.000000         1.719911100       938.004010186     -6684.356487475     -6683.027249898       465.121699721
       165           41.250000         1.765278868       962.746654621     -6684.352590737     -6683.027722443       442.568485232
       166           41.500000         1.768078657       964.273601824     -6684.354869518     -6683.028117338       498.279729682
       167           41.750000         1.850936300      1009.462449690     -6684.362489746     -6683.029197251       316.405794099
       168           42.000000         1.911383325      1042.429009307     -6684.368844572     -6683.027238371       520.838236649
       169           42.250000         1.938782471      1057.371938169     -6684.377071431     -6683.028051483       357.327882281
       170           42.500000         1.891260460      1031.454414363     -6684.381925865     -6683.027931318       339.651234148
       171           42.750000         1.885905792      1028.534088852     -6684.385396911     -6683.028948734       361.785319705
       172           43.000000         1.881796624      1026.293033397     -6684.386880763     -6683.029832680       678.612945490
       173           43.250000         1.802899080       983.263941358     -6684.385525223     -6683.029197934       360.612422096
       174           43.500000         1.719971437       938.036917047     -6684.382360204     -6683.027826275       426.981041076
       175           43.750000         1.672783643       912.301668140     -6684.380512667     -6683.028608669       358.340731338
       176           44.000000         1.747287088       952.934309165     -6684.377762530     -6683.029407836       336.807394534
       177           44.250000         1.762941550       961.471929819     -6684.372928019     -6683.029264822       365.886627406
       178           44.500000         1.749572202       954.180563008     -6684.365618923     -6683.027621222       443.545324189
       179           44.750000         1.822852015       994.145860452     -6684.359971269     -6683.028243949       356.251774269
       180           45.000000         1.746911600       952.729525808     -6684.352163041     -6683.026490593       484.415030751
       181           45.250000         1.726407125       941.546808590     -6684.348682184     -6683.028217333       404.261231440
       182           45.500000         1.696302242       925.128226797     -6684.341143904     -6683.024764512       427.951513979
       183           45.750000         1.737071549       947.362964957     -6684.339751694     -6683.026071108       523.648759209
       184           46.000000         1.770737264       965.723551048     -6684.339455067     -6683.026872046       424.648195378
       185           46.250000         1.825417383       995.544959099     -6684.341345897     -6683.028303927       422.955002543
       186           46.500000         1.822146307       993.760981685     -6684.342101699     -6683.027097074       422.280967819
       187           46.750000         1.956429630      1066.996334365     -6684.346433755     -6683.027876089       328.947889741
       188           47.000000         1.898622470      1035.469502714     -6684.350661547     -6683.027298942       490.038279481
       189           47.250000         1.917718053      1045.883839047     -6684.357476790     -6683.028270053       469.208618270
       190           47.500000         1.952638141      1064.928534595     -6684.364382361     -6683.028551320       546.356581471
       191           47.750000         1.964782060      1071.551577385     -6684.371326144     -6683.028873227       357.746993107
       192           48.000000         1.939514154      1057.770983075     -6684.375262806     -6683.026816535       432.937129092
       193           48.250000         1.914846584      1044.317799471     -6684.381610322     -6683.028576193       411.439183253
       194           48.500000         1.923124445      1048.832374072     -6684.383551445     -6683.028269010       457.256732066
       195           48.750000         1.851751157      1009.906855713     -6684.381500415     -6683.027096334       443.454832724
       196           49.000000         1.947059087      1061.885833344     -6684.378653232     -6683.028504526       581.872712756
       197           49.250000         1.905074448      1038.988278157     -6684.369844797     -6683.027066250       432.750905395
       198           49.500000         1.865763332      1017.548807053     -6684.361579608     -6683.027557174       492.007463646
       199           49.750000         1.776480064       968.855555782     -6684.353820324     -6683.027490469       578.253548259
       200           50.000000         1.762355405       961.152258015     -6684.348700142     -6683.026689691       466.409643246
