     387
 i =        0, time =        0.000, E =     -6728.2034483580
  O         4.5436807653        0.7168663321        4.2722669785
  O        17.2350762756        5.5715928793        2.4263519096
  O        26.6663232718        1.6544130322        0.7495530252
  O        34.0551646961        5.5624095475        5.6137558243
  O         8.2850303333        6.6857693642        6.2342558228
  O        18.9176790621        1.4716552895        3.8277835506
  O        29.7057328769        6.0334435865        2.9241017564
  O        36.6141135398        2.4681570483        7.7814187462
  O         2.3776880053        6.8407749775        2.1852600758
  O         9.5777120925        1.5906721176        6.6823428177
  O        20.4326045544        6.2530941111        5.0368933374
  O        30.9898121219        2.3081271777        4.7961792724
  O        10.3147367072        4.2337802347        2.9371443383
  O        16.1609259013        8.6203690827        7.1471975276
  O        27.0293516259        3.4354250439        6.2598061776
  O        37.9668357007        8.5712243106        4.6727680923
  O         7.8870278326        8.1670115576        1.1914070977
  O        13.9558237643        2.0343204192        5.3468057618
  O        24.2006262003        7.6818199806        3.9554141938
  O        35.9297209014        3.9294091941        2.5832772849
  O         2.3269078768        3.0590491518        5.8758773654
  O        12.2747808639        8.3184733814        3.0097250000
  O        22.6591712471        2.5307032263        2.8406964167
  O        33.8014927963        7.2190243450        1.3084857020
  O         8.4032689725        4.0082856390        4.4983424076
  O        15.7236834258        7.9037842013        9.5190039600
  O        24.9697602857        3.9756435921        7.7389966215
  O        35.6314190516        8.3671245044        5.4527177905
  O         5.8613313485        6.7495284164        2.3171090811
  O        12.9208054277        3.3425551681        7.2126654087
  O        23.4823531702        7.1958027844        6.4078400799
  O        34.0504213265        2.6798017682        3.8621597036
  O         1.2262200647        2.9222975541        8.1194448825
  O        11.6899314930        7.0836929499        5.1405128577
  O        21.8569003135        3.4159433530        5.0721560368
  O        32.9158083892        7.8277844891        3.5585775013
  O         4.6809444506        1.7035654090        6.6527940775
  O        15.2420906679        6.0490061576        3.9513850861
  O        26.1043417522        0.7899191198        3.1258256312
  O        32.0911960599        5.1679773913        7.1332356854
  O         6.3732522346        5.3786526451        7.4407145150
  O        17.9923386279        2.1853645171        6.1232121600
  O        28.4974437773        7.2968225119        4.7145287361
  O        34.6881395351        1.1560402265        8.9677926850
  O         1.0173986061        6.3780945194        4.1611334799
  O         8.4335868507        2.1692295067        8.8099844639
  O        19.4376301701        6.8503435387        7.2706123314
  O        29.5759338381        1.4167345997        6.7799316517
  O         5.0058693812        3.1465371454        4.6161384461
  O        15.8692739601        7.7624497737        2.2511337209
  O        25.6838789819        3.2543206078        2.4621673125
  O        32.5386253781        7.5556356180        6.3470657972
  O         6.8408140037        1.4886550405        5.2655105423
  O        17.5339228757        7.3234570800        4.1567351417
  O        28.0296552341        2.2309470844        2.8949759747
  O        34.1680629166        6.5862008569        7.9410279994
  P         5.3290181743        1.6729835623        5.2421735993
  P        16.4516309599        6.6500704486        3.1965070581
  P        26.6298388391        2.0471311298        2.2127866637
  P        33.2005266140        6.2052840090        6.7984240461
 Ca         5.0488734049        7.6957365363        4.2467868757
 Ca        14.6891023087        3.7157067618        3.6911197276
 Ca        21.3498038395        7.9375126262        7.7249784095
 Ca        32.8783421800        3.3563149600        5.8258027800
  O         6.1052466946        5.8678843192        5.0807994458
  O        16.6591730545        0.6839083847        4.5742280219
  O        27.6733382682        5.0388438931        3.9915702232
  O        34.8342405829        1.2677051661        6.4918117219
  O         6.1087258805        7.9023557310        6.4798715477
  O        17.0584144879        3.1399254333        3.9430683235
  O        27.2527389210        7.0191196327        2.5384898595
  O        34.2678203359        3.3862982537        7.6922170810
  P         6.7538624127        6.4867177235        6.4080825231
  P        17.5824232555        1.9119963811        4.6699788719
  P        28.2923213986        6.3770389296        3.4574092494
  P        35.1126022174        2.1115381842        7.8394139400
 Ca         2.9102508099        2.6291037110        3.7763287095
 Ca        13.4262895289        6.4884375385        2.5221367927
 Ca        20.2439070367        2.3555743483        6.3113292671
 Ca        30.9770200272        7.2061205331        4.7133953300
  O         3.5177161799        5.6870540955        4.2204594380
  O        10.7118333612        0.9438537757        8.9459259800
  O        21.3956613942        5.2658927100        7.2295085906
  O        32.0717041046        0.8893088552        6.5089519334
  O         1.7541128986        4.3972759027        2.9160209446
  O         8.6274079713       18.6162799362        8.0809458321
  O        19.1173088791        4.4932555850        6.2522017098
  O        30.2567395234       18.7792555825        4.8671995689
  P         2.2498769423        5.8126322513        3.3207028663
  P         9.3916902503        1.1170681344        8.2054979748
  P        20.1077433827        5.6838548396        6.4813057035
  P        30.7302664310        1.1045589410        5.7684883187
 Ca         0.6827029196        8.2467261847        2.8309123925
 Ca         8.1395545366        3.5377689277        6.8542113001
 Ca        18.1845385078        8.4993264449        6.2065530302
 Ca        29.4597305884        3.6429125111        3.9390884604
  O         9.8716746032        1.9252656784        3.8778428078
  O        16.5088336780        6.1331688895        7.8221554614
  O        26.1676873909        1.7148312138        7.8988854745
  O        37.2453950857        6.4393155607        5.8245170783
  O         8.1651822621        2.8330592777        2.2625686020
  O        14.1543339354        7.2382861661        7.5392635812
  O        24.7262499608        2.3623929762        5.8837067393
  O        36.5266854650        6.8276005171        3.4720553398
  P         9.2248948480        3.2454316200        3.3733524061
  P        15.6354317510        7.3952036894        8.0808646879
  P        25.7594327745        2.9176363881        6.9629851822
  P        36.7714974167        7.5616592404        4.8320854873
 Ca         9.6853687357        6.0327102436        4.4591961798
 Ca        20.6472416564        1.7183728828        2.3107669919
 Ca        27.6924921326        5.6944432732        6.3270873291
 Ca        37.1696675274        1.0987537228        5.9152377724
  O         7.2378165516        8.4246764736        3.5778135414
  O        14.9966147731        4.2124468394        6.0536391200
  O        25.6109420516        8.5378897959        5.8411727006
  O        36.0753812133        3.7615408765        5.0051845168
  O         8.2158886689        6.1644847264        2.6612447466
  O        15.2279649056        2.1715933140        7.5393564564
  O        25.4139595376        6.0054457595        5.3856814232
  O        36.3335674981        1.6049949244        3.7898269274
  P         7.2984586390        7.3681847192        2.3632599916
  P        14.2603997358        2.9269948189        6.6056446577
  P        24.7048302841        7.3839902644        5.3921525936
  P        35.5751071735        2.9674055368        3.7521081641
 Ca         0.7245655321        7.0046609478        6.4206470215
 Ca        11.4143487835        2.3466600038        5.5693582020
 Ca        22.0744054330        7.1674992721        3.7806967620
 Ca        28.4847784079        2.7763735269        7.9862919746
  O        38.5703901094        3.9887803688        6.1142137715
  O         9.9492731097        8.5380256081        4.1135952480
  O        20.7361246067        4.0541146096        2.8671382708
  O        31.5490751728        8.5534747856        1.4994785449
  O         1.9599470630        5.1915225828        7.1249445196
  O        12.0744742923        9.5549094374        5.2645725521
  O        23.0702603316        5.0188379220        3.5737389473
  O        33.7067040674        9.6512995056        2.0519812448
  P         1.2907517687        3.7946723561        6.8518961637
  P        11.5055801525        8.4327410162        4.3508486536
  P        22.1096204944        3.7954078396        3.5864479708
  P        32.9578917279        8.2985500153        2.0333566581
 Ca         2.6625905517        1.2992425924        7.5682847480
 Ca        12.8382562046        5.5815721553        6.3444469725
 Ca        24.0599297928        1.0140263343        3.8692878156
 Ca        34.4252724245        5.8516289432        3.1395829409
 Ca         6.5307468582        4.5999922097        3.2073739823
 Ca        17.3711109643       -0.2402704305        2.7582945380
 Ca        23.4747130870        4.7646232053        6.2664229302
 Ca        34.1724005061        0.3427930773        4.2702325882
 Ca         8.6312643569        0.5115543969        2.4585513266
 Ca        16.7704121162        3.9808748458        7.4198498620
 Ca        28.0835959989       -0.0406983791        3.8312305227
 Ca        37.8713032639        4.7926274903        3.9658334755
 Ca         8.2312538136       -0.3571328582        5.7511974481
 Ca        18.7475891199        4.9227175428        3.8666838086
 Ca        24.4809000753        0.4247309400        7.0733058844
 Ca        35.9829163801        4.8016159492        6.9975622764
 Ca         4.3015114607        4.7092950386        6.2860557169
 Ca        14.0913518373       -0.0244409306        6.6094257892
 Ca        25.6213572565        5.3942025733        3.0462808032
 Ca        33.7908575452       -0.4546991349        7.5670457725
  O        38.1964540950       -0.3744604642        9.5433045969
  O         9.6261332466        4.8872047109        8.0808137741
  O        22.5470266346        0.2630002600        5.6950794401
  O        32.0454616778        4.7966771694        3.6690659494
  H        37.5022764684        0.2687360900        9.7514217841
  H         9.3164107459        5.8362360632        7.9855999407
  H        21.6341403417        0.3534460889        6.1196219653
  H        31.2482647227        5.2064343998        3.1610893190
  O         1.9772320875       -0.4480507373        6.0664139044
  O        12.6678003255        4.5537957114        4.1759883061
  O        19.0744840097       -0.1641698531        9.6811477263
  O        28.4621922116        4.9626233795        8.3982164332
  H         1.9090007732        0.0615907642        5.1101545393
  H        11.8260178537        4.3984558794        3.6945011049
  H        18.1353461399       -0.3943618968        9.8131237113
  H        29.1696317669        5.4587920516        8.8163000686
  O         0.7528773832       -0.0317497021        6.9126941566
  O        10.7186023228        4.5527667175        6.0763758283
  O        21.3688964013       -0.2296560651        3.0828482852
  O        32.7248258114        4.4041056212        2.2722750017
  H        -0.0309460157       -0.0086420032        8.6956160226
  H        10.4830106072        4.6526643274        7.1294972149
  H        21.4383648104        0.0668129413        4.0346023504
  H        32.9666332594        3.4669047713        2.4341368064
  O         2.0490446304        0.4056111743        3.6467697472
  O        13.7847089182        4.4101132488        1.6760317419
  O        20.2566803160        0.2201649108        6.8189657559
  O        29.8587993543        5.0635932077        5.7410241112
  H         3.0201828904        0.2275381125        3.5461495228
  H        12.9665859704        3.9280057560        1.4824796548
  H        19.1006585594        0.2433531610        8.8020206445
  H        30.5794814165        5.0408268280        6.4634575703
  O         4.5867488960        9.9867051059        4.3426381012
  O        17.2018481982       14.9564803978        2.4608078160
  O        26.6731681177       11.1434455452        0.6802099586
  O        33.9953892987       14.9568975071        5.5964285969
  O         8.2722665673       16.1315039836        6.1500462396
  O        18.9502636186       10.9495294491        3.8486695551
  O        29.5840182156       15.6268951345        2.7198175232
  O        36.6692471337       11.9204694386        7.7219642871
  O         2.3754239181       16.2414757152        2.1661655451
  O         9.5722903731       11.0079221736        6.6813032723
  O        20.4090373306       15.5858231134        5.0511653297
  O        30.7753487945       11.7714270188        4.9485423411
  O        10.3702355289       13.6282597760        2.9338047878
  O        16.1523175385       17.9159090520        7.1037602518
  O        27.0761008059       12.7445018179        6.3591223759
  O        37.9995242291       17.9351048351        4.6465084064
  O         7.9580942258       17.5377424751        1.2034661974
  O        13.9641620086       11.4671273538        5.3499116932
  O        24.1095201768       17.1430977781        3.9762113437
  O        35.8461835033       13.4156779277        2.5788884576
  O         2.3330288622       12.4669917428        5.8967037078
  O        12.3118379031       17.7321116619        3.0493491651
  O        22.6158689466       11.9420898075        2.8797428503
  O        33.7405095319       16.6398704747        1.2073042891
  O         8.4155258777       13.3763994568        4.5049299931
  O        15.7393244224       17.2229178959        9.5176176944
  O        24.9943375614       13.4736712801        7.7159557917
  O        35.6821917154       17.8308801020        5.5742005383
  O         5.8599680601       16.2512903357        2.3140907943
  O        12.9216260811       12.7767250079        7.2233218251
  O        23.4525845689       16.5342918937        6.3909499241
  O        34.0457976332       12.0565116164        3.9176529975
  O         1.2339544899       12.3597800046        8.1507305599
  O        11.7091185127       16.5041353303        5.1637945085
  O        21.8434868355       12.8383291000        5.1005508881
  O        32.9967170973       17.2500120260        3.5061384696
  O         4.6681332432       11.1481414578        6.6129746455
  O        15.2624524074       15.5403619509        3.9420473134
  O        26.1789049072       10.1499371613        3.0385958377
  O        32.0900400564       14.6144893093        7.2401828676
  O         6.4715809003       14.9217628966        7.5913120524
  O        17.9739882035       11.6240729518        6.1126741507
  O        28.4661816136       16.6916200685        4.7266207771
  O        34.7615844413       10.5977807731        8.9711344637
  O         1.0370847943       15.7634726727        4.1501846867
  O         8.4271318844       11.5978758908        8.8117535539
  O        19.4123966520       16.3072735116        7.2277167182
  O        29.9158995393       10.6747362487        7.0857446794
  O         4.9244574662       12.4770682792        4.4899002213
  O        15.8440827761       17.1696240720        2.1340654285
  O        25.6224288544       12.5510602069        2.5551882497
  O        32.4767651745       16.9498157771        6.2903014320
  O         6.8242821668       10.8924748696        5.2416690147
  O        17.5235494221       16.9073091497        3.9736860423
  O        28.0925723396       11.6969208222        2.7542717968
  O        34.2347944218       16.0205588153        7.8471078810
  P         5.3097954068       11.0691205249        5.1963878745
  P        16.4189224555       16.0947041516        3.1062427318
  P        26.6555574275       11.4304967162        2.1566582223
  P        33.1610953363       15.6320419923        6.7721973567
 Ca         5.0494712022       17.1763085329        4.2335031029
 Ca        14.6785349237       13.1761362273        3.6897923371
 Ca        21.4220162710       17.3503085176        7.6171574766
 Ca        32.8094264075       12.8139893478        5.8258252866
  O         6.0860193743       15.0861939128        5.1607139933
  O        16.7554841616        9.9868239307        4.5732071436
  O        27.7102980355       14.4273395884        3.9197482360
  O        34.9279875640       10.6190475600        6.4989990321
  O         6.0429036014       17.2640385994        6.3504798988
  O        16.9676404496       12.4219595938        3.8860387376
  O        27.0836880522       16.5148708281        2.6697859209
  O        34.2743705400       12.7875950272        7.6710556474
  P         6.7491536674       15.8629052317        6.4009891429
  P        17.6125084696       11.2799463362        4.6628035141
  P        28.2478741628       15.8355297265        3.4133019059
  P        35.1653297158       11.5223711428        7.8074506154
 Ca         2.8209593341       11.9925420834        3.7606486848
 Ca        13.4411625113       15.9438067925        2.4568987475
 Ca        20.2129929168       11.7429861006        6.3433363689
 Ca        30.9787320777       16.5945491233        4.5332428120
  O         3.5341593452       15.1233259525        4.1798841269
  O        10.7083501998       10.3659804398        8.9341804475
  O        21.3203998788       14.6930698020        7.2989812752
  O        32.2885051337       10.3438486562        6.2334333820
  O         1.7593851633       13.7756841252        2.8781653640
  O         8.6110316049        9.1967514086        8.1142701848
  O        19.0468805242       13.9123154247        6.3276873613
  O        30.2596726908        9.3230958678        4.9599158338
  P         2.2616515450       15.1917157317        3.2965171449
  P         9.3833174246       10.5447614845        8.2088368343
  P        20.0488117438       15.0906250929        6.5115341332
  P        30.8038662351       10.4853771376        5.8415784353
 Ca         0.6451000425       17.6308162353        2.8273209838
 Ca         8.1467321406       12.9613401963        6.8404418516
 Ca        18.1742175752       17.9879897685        6.1766312397
 Ca        29.6616517007       13.1966679450        3.5744556565
  O         9.8880727651       11.3217840837        3.8440729027
  O        16.5101253120       15.4758512774        7.8108202934
  O        26.0674972553       11.1301258953        7.9850545864
  O        37.2480864885       15.8122207097        5.7888180324
  O         8.1653894253       12.2638343048        2.2775911214
  O        14.1547398391       16.6046646817        7.5410776486
  O        24.7297388375       11.7845825209        5.9326442126
  O        36.3610729702       16.3601937164        3.5267580003
  P         9.2682661929       12.6571460545        3.3526699871
  P        15.6455314424       16.7356774127        8.0771072265
  P        25.7386533359       12.3365082233        7.0320481098
  P        36.7467136113       16.9977351812        4.8708744447
 Ca         9.7295702946       15.4266269124        4.4537098064
 Ca        20.6479417757       11.1097981162        2.3026006909
 Ca        27.6867717384       15.0202682397        6.2437091056
 Ca        37.1987364741       10.5167770959        5.8615292560
  O         7.2834171585       17.8924251499        3.5737096142
  O        15.0008120351       13.6685007954        6.0177228299
  O        25.6428010678       17.8646413234        5.8664845603
  O        36.0356202828       13.2779018860        4.9931877219
  O         8.1986848292       15.5903070435        2.7366238831
  O        15.2394361023       11.6618339158        7.5260528948
  O        25.3248964706       15.3421216891        5.3023938274
  O        36.4127527894       11.1508910796        3.7615734397
  P         7.3169497536       16.7970096784        2.3882336186
  P        14.2587082913       12.3899560144        6.5898280809
  P        24.6648641013       16.7524664158        5.3838855450
  P        35.5491273631       12.4457708722        3.7706651738
 Ca         0.7520482382       16.4434879629        6.3518619546
 Ca        11.4081657760       11.7646679462        5.5623174585
 Ca        22.0126593669       16.5299216477        3.7750299426
 Ca        28.5724839877       12.0805445795        7.9463308081
  O        38.5770010630       13.3833188308        6.1241075747
  O         9.9660588868       17.9674612069        4.0998438939
  O        20.6750057542       13.4505998243        2.9079427552
  O        31.5438879301       17.9809087628        1.4940073588
  O         1.9847093840       14.6231747252        7.1189122549
  O        12.0871350935        0.1338705235        5.2708588751
  O        22.9930118385       14.4499651632        3.5663398901
  O        33.7352215917        0.2269278913        1.9664067321
  P         1.2945892977       13.2283371205        6.8728820997
  P        11.5257335389       17.8478086253        4.3716502580
  P        22.0566177284       13.2066142435        3.6098353901
  P        32.9629961645       17.7315016076        1.9786002010
 Ca         2.6831016766       10.7341199867        7.5609350635
 Ca        12.8013111223       14.9899042124        6.3741850723
 Ca        24.2151967362       10.5574918829        3.8381739844
 Ca        34.3363318482       15.2303127731        3.0805470683
 Ca         6.5454448957       14.0227547926        3.2407327552
 Ca        17.1764958502        9.3548343464        2.6058526065
 Ca        23.4215867015       14.1463576121        6.3066522404
 Ca        33.9507005089        9.7997717949        4.4213748308
 Ca         8.5344452141        9.9435087049        2.5036378711
 Ca        16.7620776785       13.3404517621        7.3968263846
 Ca        28.2050009374        9.3550735619        3.6165683783
 Ca        37.8882266947       14.1153090982        3.9760868967
 Ca         8.2319108991        9.0730965561        5.7931270885
 Ca        18.7258332390       14.2894146369        3.8965780999
 Ca        24.3791015855        9.8608302520        7.0654995678
 Ca        35.9676914206       14.2418359611        6.9919470926
 Ca         4.2405923261       14.0499206560        6.1971142522
 Ca        14.0820736192        9.4297343417        6.5858777438
 Ca        25.6282105818       14.7796656486        2.9679178966
 Ca        33.8853590220        8.9356793868        7.6296542237
  O        38.1037667592        9.0715107836        9.5132057019
  O         9.6098545196       14.3141802792        8.0817573251
  O        22.4772545044        9.7432297405        5.5904046462
  O        31.6033617561       14.3175563425        4.4546566508
  H        37.4056681255        9.7779949707        9.7036767376
  H         9.2972613406       15.2592702721        7.9905540420
  H        21.6263863957        9.7602116338        6.0657529989
  H        32.0273831663       14.0267007353        3.1104870615
  O         2.0628748876        8.9485306690        6.0804075169
  O        12.6668483125       13.9803409266        4.1830887433
  O        19.0249574042        9.3180175243        9.7599203186
  O        28.6310947917       14.3334150220        8.2671015655
  H         1.9743474211        9.4240158526        5.1361349382
  H        11.8420197298       13.8130862153        3.6793485924
  H        18.1027010388        9.0225529088        9.8257158597
  H        29.3215886423       14.8805402248        8.6839540894
  O         0.8273387353        9.3136902383        6.9382972081
  O        10.7428717881       13.9631253563        6.1113718144
  O        21.3539402578        9.1878806491        3.0722724361
  O        32.4565889558       13.8597018214        2.2533034996
  H        -0.0075884830        9.4860604442        8.8203179375
  H        10.4670691609       14.0644379037        7.1580464625
  H        21.4687976646        9.5163245964        4.0137897724
  H        32.8182611466       12.9675097993        2.2556120068
  O         2.1125095321        9.7649916523        3.6531550102
  O        13.7944348403       13.8242009894        1.6883024911
  O        20.2613106166        9.6390143049        6.9327237218
  O        29.9324821532       14.4930794124        5.7621463357
  H         3.0890020447        9.6493260647        3.5945376476
  H        12.9723191127       13.3587327564        1.4957544883
  H        19.1213985969        9.6396592805        8.8429194766
  H        30.6793304180       14.4983442371        6.4110332934
  O        17.2188020918        9.2658241808       16.1040783944
  C        18.3857102327        9.2623890103       16.1426553299
  O        19.5489890752        9.2704648943       16.1881619495
     387
 i =        1, time =        0.250, E =     -6755.8045416053
  O         4.5468237416        0.7149724916        4.2717660839
  O        17.2361825437        5.5709432533        2.4255365674
  O        26.6657331563        1.6532869237        0.7478498574
  O        34.0589065271        5.5597287230        5.6149155328
  O         8.2884997511        6.6844986498        6.2348126291
  O        18.9189236528        1.4704594564        3.8303171911
  O        29.7058861211        6.0322848336        2.9257158102
  O        36.6114839274        2.4664429014        7.7803581297
  O         2.3758736347        6.8428789903        2.1833709803
  O         9.5774464569        1.5943905609        6.6812211351
  O        20.4319566776        6.2561649312        5.0357426945
  O        30.9912666257        2.3076358355        4.7984935208
  O        10.3148744207        4.2345278277        2.9350376411
  O        16.1597713744        8.6200207885        7.1489125707
  O        27.0292396019        3.4387527013        6.2599585812
  O        37.9713980797        8.5742141693        4.6742014580
  O         7.8869823056        8.1644614543        1.1934976924
  O        13.9553625846        2.0351450568        5.3475487670
  O        24.2017883799        7.6819533502        3.9550977169
  O        35.9287814322        3.9311542847        2.5841695476
  O         2.3279830938        3.0589281174        5.8797346417
  O        12.2728426617        8.3186004190        3.0090124986
  O        22.6619579238        2.5308450010        2.8397345217
  O        33.7965013092        7.2186216576        1.3086681272
  O         8.4014438433        4.0098074525        4.4972431743
  O        15.7264866212        7.9056810544        9.5214176227
  O        24.9708327121        3.9729776260        7.7399236636
  O        35.6323270336        8.3671956156        5.4527356520
  O         5.8584202306        6.7491825541        2.3182521262
  O        12.9186087337        3.3427035423        7.2120257092
  O        23.4823063881        7.1982067408        6.4095663330
  O        34.0490067133        2.6808054293        3.8640884998
  O         1.2272898057        2.9211337936        8.1248435644
  O        11.6906621597        7.0820778495        5.1392316590
  O        21.8604449570        3.4173097389        5.0709904756
  O        32.9122803723        7.8245057074        3.5617443466
  O         4.6784389588        1.7067259651        6.6541716270
  O        15.2413539026        6.0523196591        3.9523837926
  O        26.1044983850        0.7894299292        3.1257996515
  O        32.0886197343        5.1680235953        7.1335238112
  O         6.3737035669        5.3789887258        7.4378727743
  O        17.9915043179        2.1834972017        6.1222345039
  O        28.4965544845        7.2960537495        4.7138231968
  O        34.6885894606        1.1548729866        8.9680376068
  O         1.0141496830        6.3753141374        4.1613178260
  O         8.4331930941        2.1683381383        8.8082328970
  O        19.4388480054        6.8508696077        7.2669251629
  O        29.5769019420        1.4194627482        6.7799471122
  O         5.0033167920        3.1459112266        4.6154189622
  O        15.8705336602        7.7616135807        2.2517356656
  O        25.6850286518        3.2542775557        2.4621218737
  O        32.5388043370        7.5554465992        6.3488401414
  O         6.8419005570        1.4924995244        5.2673575106
  O        17.5341536394        7.3237256162        4.1571511681
  O        28.0269693658        2.2304814991        2.8919330444
  O        34.1666762909        6.5846499218        7.9409183237
  P         5.3316486387        1.6733876636        5.2406493830
  P        16.4540730272        6.6495091911        3.1982663372
  P        26.6302191852        2.0470233506        2.2145719675
  P        33.2002659863        6.2002568903        6.8000429601
 Ca         5.0495222529        7.6961400310        4.2469586294
 Ca        14.6897592466        3.7145058912        3.6912734693
 Ca        21.3496828911        7.9377635924        7.7245455092
 Ca        32.8793633332        3.3553442937        5.8264681851
  O         6.1038355404        5.8696578713        5.0782853075
  O        16.6594595221        0.6824109386        4.5766319009
  O        27.6720920670        5.0402765801        3.9938554257
  O        34.8361637255        1.2689128087        6.4937197811
  O         6.1098052362        7.9028330301        6.4802478937
  O        17.0603129774        3.1405339636        3.9388418779
  O        27.2541709607        7.0208933572        2.5425569246
  O        34.2711698093        3.3869406216        7.6906733204