#     Step Nr.          Time[fs]        Kin.[a.u.]          Temp[K]            Pot.[a.u.]        Cons Qty[a.u.]        UsedTime[s]
         0            0.000000         1.784079260       973.000000000     -6728.203448358     -6726.419369099         0.000000000
         1            0.250000        22.654335238     12355.206793022     -6755.804541605     -6730.478752208      3916.534623377
         2            0.500000        49.278402815     26875.423658277     -6792.087316446     -6731.637681804      1227.421828689
         3            0.750000        62.957157675     34335.534193298     -6819.397446339     -6731.768004603      1342.216081588
         4            1.000000        66.431500486     36230.369042350     -6837.667670599     -6731.101162402      1373.743897217
         5            1.250000        63.129345047     34429.441631417     -6849.240123019     -6730.298940105       618.118129635
         6            1.500000        56.833754626     30995.956573257     -6856.906389273     -6729.995527058      1490.377964164
         7            1.750000        49.155278257     26808.274066018     -6862.321862254     -6730.149835852      1469.304604172
         8            2.000000        41.929373198     22867.414608558     -6866.361544016     -6730.283041700       702.103671371
         9            2.250000        35.735761095     19489.546420192     -6869.544172539     -6730.183135329       891.650253548
        10            2.500000        30.881227978     16841.984268831     -6872.185006681     -6730.014623760       777.742565180
        11            2.750000        26.723870825     14574.647496551     -6874.454772802     -6729.944805405      1058.979388589
        12            3.000000        23.123041998     12610.829784692     -6876.458932824     -6729.945171338       545.834724897
        13            3.250000        19.950797750     10880.753255661     -6878.263702517     -6729.947585199       872.495926194
        14            3.500000        17.357848488      9466.612253233     -6879.897968721     -6729.949763391      1288.789986707
        15            3.750000        15.147988714      8261.400349973     -6881.391164836     -6729.952511054      1285.069159107
        16            4.000000        13.404114135      7310.327152887     -6882.762454406     -6729.952825047      1075.685376688
        17            4.250000        12.016700028      6553.660138799     -6884.029587263     -6729.958047754      1359.932453032
        18            4.500000        10.653872530      5810.402153781     -6885.186562999     -6729.958917861       542.803520685
        19            4.750000         9.805977122      5347.977501150     -6886.254984007     -6729.956656214       572.065452677
        20            5.000000         8.909350120      4858.975642740     -6887.252651153     -6729.958176077       651.249070862
        21            5.250000         8.173931122      4457.893302189     -6888.184584004     -6729.961084385       553.502031767
        22            5.500000         7.563303431      4124.869564356     -6889.043004659     -6729.958296356       583.751146552
        23            5.750000         7.059972267      3850.363138055     -6889.846189459     -6729.954714016       651.891809373
        24            6.000000         6.609707781      3604.798182038     -6890.604409809     -6729.955565820       585.096894955
        25            6.250000         6.216807021      3390.518217716     -6891.315761626     -6729.959896009       654.332609694
        26            6.500000         5.836662343      3183.195157833     -6891.981165081     -6729.958794483       585.761370817
        27            6.750000         5.462166626      2978.952924063     -6892.600540627     -6729.954224163       666.745637652
        28            7.000000         5.280469873      2879.859265888     -6893.199209356     -6729.965179286       765.505857101
        29            7.250000         5.009338593      2731.989862732     -6893.741546486     -6729.960722712       644.404407852
        30            7.500000         4.832401827      2635.492202946     -6894.255442501     -6729.954792427       722.093490067
        31            7.750000         4.443897417      2423.609917357     -6894.750365477     -6729.962781624       808.356721297
        32            8.000000         4.286280622      2337.648971173     -6895.205990391     -6729.962851373       709.187094483
        33            8.250000         4.085637438      2228.222320328     -6895.639871504     -6729.965160517       819.704639957
        34            8.500000         3.920672574      2138.253889041     -6896.045078488     -6729.963737772       730.179604901
        35            8.750000         3.806114806      2075.776446889     -6896.425560721     -6729.957193582       666.963196144
        36            9.000000         3.776861418      2059.822253150     -6896.795709707     -6729.960481525       632.046872813
        37            9.250000         3.555377797      1939.029657789     -6897.148297157     -6729.963081383       619.889778816
        38            9.500000         3.422025247      1866.301929877     -6897.480372088     -6729.963625311       728.739242449
        39            9.750000         3.372458463      1839.269229055     -6897.791931621     -6729.961352950       695.178135783
        40           10.000000         3.303296662      1801.549810729     -6898.099645398     -6729.965265813       709.455799016
        41           10.250000         3.182364896      1735.596121614     -6898.391239832     -6729.966986001       706.143213170
        42           10.500000         3.225239155      1758.978857838     -6898.665064698     -6729.961506518       675.458375762
        43           10.750000         3.243799304      1769.101179673     -6898.939234182     -6729.960516491       519.374250784
        44           11.000000         3.071890410      1675.345617551     -6899.203667192     -6729.959097654       573.913546041
        45           11.250000         3.066417260      1672.360674844     -6899.454828098     -6729.956061698       642.414914282
        46           11.500000         2.982142810      1626.399129115     -6899.716527236     -6729.968521217       819.082018575
        47           11.750000         2.904098308      1583.835269133     -6899.948443289     -6729.964558394       639.299030391
        48           12.000000         2.798582291      1526.289011355     -6900.173253742     -6729.959853499       750.582309637
        49           12.250000         2.828921175      1542.835212222     -6900.392321370     -6729.958214163       653.256848604
        50           12.500000         2.763201421      1506.993015122     -6900.616071133     -6729.965467954       727.499462304
        51           12.750000         2.787358119      1520.167579649     -6900.827865360     -6729.964472430       684.471084814
        52           13.000000         2.774326924      1513.060634651     -6901.038608672     -6729.968161317       775.415466762
        53           13.250000         2.806522860      1530.619633653     -6901.238662112     -6729.965586702       866.639301841
        54           13.500000         2.751765400      1500.756045639     -6901.439408110     -6729.966492354       727.570887677
        55           13.750000         2.723583777      1485.386370142     -6901.637963472     -6729.969956146       840.800108087
        56           14.000000         2.720536966      1483.724701919     -6901.823872710     -6729.964721936       719.396244245
        57           14.250000         2.633100318      1436.038559238     -6902.012799773     -6729.964123921       683.996013401
        58           14.500000         2.721033681      1483.995600485     -6902.200650127     -6729.967466752       784.803919306
        59           14.750000         2.677979383      1460.514674983     -6902.385970704     -6729.969820313       795.862168915
        60           15.000000         2.646478571      1443.334782293     -6902.563943818     -6729.969393159       794.048543658
        61           15.250000         2.691212351      1467.731662652     -6902.738088774     -6729.964965529       696.089845189
        62           15.500000         2.598600765      1417.223215001     -6902.915947097     -6729.966969384       777.153955992
        63           15.750000         2.565537787      1399.191349532     -6903.086756704     -6729.968680767       758.737194563
        64           16.000000         2.518318743      1373.439057656     -6903.249404525     -6729.965788572       681.951860715
        65           16.250000         2.574982538      1404.342321529     -6903.416113211     -6729.968719761       794.518119556
        66           16.500000         2.599686095      1417.815131636     -6903.581243866     -6729.969987707       796.104012900
        67           16.750000         2.611933990      1424.494880765     -6903.741469927     -6729.969386595       794.306757926
        68           17.000000         2.552301738      1391.972681881     -6903.893786998     -6729.966240491       689.486211293
        69           17.250000         2.459121697      1341.154210651     -6904.047997899     -6729.969758298       723.622608920
        70           17.500000         2.390942981      1303.970946338     -6904.192598210     -6729.968785454       724.788935940
        71           17.750000         2.489701842      1357.831990745     -6904.333518346     -6729.965387043       591.170789162
        72           18.000000         2.334590953      1273.237713792     -6904.473261256     -6729.964600708       641.063904207
        73           18.250000         2.286498960      1247.009333154     -6904.609692784     -6729.964093288       612.904394852
        74           18.500000         2.180435505      1189.164514648     -6904.739182226     -6729.963067756       707.743246617
        75           18.750000         2.252266180      1228.339482003     -6904.869694641     -6729.964939761       649.194034148
        76           19.000000         2.281829393      1244.462647848     -6904.998858088     -6729.966476894       762.598290703
        77           19.250000         2.270859883      1238.480103514     -6905.121600349     -6729.963065374       652.609878133
        78           19.500000         2.238012997      1220.566089807     -6905.244370422     -6729.961945638       809.858848358
        79           19.750000         2.210860618      1205.757743044     -6905.364195187     -6729.959172297       729.217672698
        80           20.000000         2.267982909      1236.911061255     -6905.486220024     -6729.962075548       660.318675914
        81           20.250000         2.211572333      1206.145897700     -6905.602807729     -6729.960325027       769.379875814
