 DBCSR| CPU Multiplication driver                                           XSMM (U)
 DBCSR| Multrec recursion limit                                              512 (U)
 DBCSR| Multiplication stack size                                          50000 (U)
 DBCSR| Maximum elements for images                                    UNLIMITED (U)
 DBCSR| Multiplicative factor virtual images                                   1 (U)
 DBCSR| Use multiplication densification                                       F (D)
 DBCSR| Multiplication size stacks                                             3 (U)
 DBCSR| Use memory pool for CPU allocation                                     T (U)
 DBCSR| Number of 3D layers                                               SINGLE (U)
 DBCSR| Use MPI memory allocation                                              F (U)
 DBCSR| Use RMA algorithm                                                      F (U)
 DBCSR| Use Communication thread                                               T (U)
 DBCSR| Communication thread load                                             30 (D)
 DBCSR| MPI: My process id                                                     0
 DBCSR| MPI: Number of processes                                               1
 DBCSR| OMP: Current number of threads                                        16
 DBCSR| OMP: Max number of threads                                            16
 DBCSR| ACC: Number of devices/node                                            1
 DBCSR| ACC: Number of stack-buffers per thread                              128 (U)
 DBCSR| ACC: Avoid driver after busy                                           F (U)
 DBCSR| ACC: Process inhomogeneous stacks                                      T (U)
 DBCSR| ACC: Min. flop for processing                                        500 (U)
 DBCSR| ACC: Use G2G algorithm                                                 F (D)
 DBCSR| ACC: Min. flop for sorting                                           100 (U)
 DBCSR| ACC: Number of binning bins                                        16384 (U)
 DBCSR| ACC: Size of binning bins                                             16 (U)
 DBCSR| ACC: GPU backend is enabled                                            T (D)
 DBCSR| Split modifier for TAS multiplication algorithm                  1.0E+00 (U)


  **** **** ******  **  PROGRAM STARTED AT               2025-11-19 23:42:17.855
 ***** ** ***  *** **   PROGRAM STARTED ON                          d0dadd2cc8de
 **    ****   ******    PROGRAM STARTED BY                             <unknown>
 ***** **    ** ** **   PROGRAM PROCESS ID                                   638
  **** **  *******  **  PROGRAM STARTED IN                             /mnt/cp2k

 CP2K| version string:                 CP2K version 2025.2 (Development Version)
 CP2K| source code revision number:                                  git:e68414f
 CP2K| cp2kflags: omp libint fftw3 libxc libgrpp elpa elpa_nvidia_gpu parallel s
 CP2K|            calapack cosma ace deepmd xsmm dbcsr_acc plumed2 spglib libdft
 CP2K|            td4 mctc-lib tblite sirius libvori libbqb libtorch offload_cud
 CP2K|            da spla_gemm_offloading libvdwxc hdf5 trexio libsmeagol greenx
 CP2K| is freely available from                            https://www.cp2k.org/
 CP2K| Program compiled at                          Sun Nov  2 00:48:36 UTC 2025
 CP2K| Program compiled on                                       buildkitsandbox
 CP2K| Program compiled for                                           local_cuda
 CP2K| Data directory path                                        /opt/cp2k/data
 CP2K| Input file name                                            HAP_304_md.inp

 GLOBAL| Force Environment number                                              1
 GLOBAL| Basis set file name                                        BASIS_MOLOPT
 GLOBAL| Potential file name                                      GTH_POTENTIALS
 GLOBAL| MM Potential file name                                     MM_POTENTIAL
 GLOBAL| Coordinate file name                                      __STD_INPUT__
 GLOBAL| Method name                                                        CP2K
 GLOBAL| Project name                                                 HAP_304_md
 GLOBAL| Run type                                                             MD
 GLOBAL| FFT library                                                       FFTW3
 GLOBAL| Diagonalization library                                            ELPA
 GLOBAL| Cholesky decomposition library                                ScaLAPACK
 GLOBAL| DGEMM library                                                      SPLA
 GLOBAL| Minimum number of eigenvectors for ELPA usage                        16
 GLOBAL| Orthonormality check for eigenvectors enabled                 1.000E-12
 GLOBAL| Matrix multiplication library                                     COSMA
 GLOBAL| All-to-all communication in single precision                          F
 GLOBAL| FFTs using library dependent lengths                                  F
 GLOBAL| Grid backend                                                       AUTO
 GLOBAL| Global print level                                                  LOW
 GLOBAL| MPI I/O enabled                                                       T
 GLOBAL| Total number of message passing processes                             1
 GLOBAL| Number of distributed systems (nodes)                                 1
 GLOBAL| Number of threads for this process                                   16
 GLOBAL| This output is from process                                           0
 GLOBAL| OpenMP stack size per thread (OMP_STACKSIZE)                        16M
 GLOBAL| CPU model name                           Intel(R) Core(TM) Ultra 7 265K
 GLOBAL| CPUID                                                              1002

 MEMORY| system memory details [Kb]
 MEMORY|                        rank 0           min           max       average
 MEMORY| MemTotal             49330328      49330328      49330328      49330328
 MEMORY| MemFree              45608600      45608600      45608600      45608600
 MEMORY| Buffers                130376        130376        130376        130376
 MEMORY| Cached                2528816       2528816       2528816       2528816
 MEMORY| Slab                   128988        128988        128988        128988
 MEMORY| SReclaimable            43736         43736         43736         43736
 MEMORY| MemLikelyFree        48311528      48311528      48311528      48311528


 GENERATE|  Preliminary Number of Bonds generated:                             0
 GENERATE|  Achieved consistency in connectivity generation.

 *******************************************************************************
 *******************************************************************************
 **                                                                           **
 **     #####                         ##              ##                      **
 **    ##   ##            ##          ##              ##                      **
 **   ##     ##                       ##            ######                    **
 **   ##     ##  ##   ##  ##   #####  ##  ##   ####   ##    #####    #####    **
 **   ##     ##  ##   ##  ##  ##      ## ##   ##      ##   ##   ##  ##   ##   **
 **   ##  ## ##  ##   ##  ##  ##      ####     ###    ##   ######   ######    **
 **    ##  ###   ##   ##  ##  ##      ## ##      ##   ##   ##       ##        **
 **     #######   #####   ##   #####  ##  ##  ####    ##    #####   ##        **
 **           ##                                                    ##        **
 **                                                                           **
 **                                                ... make the atoms dance   **
 **                                                                           **
 **            Copyright (C) by CP2K developers group (2000-2025)             **
 **                      J. Chem. Phys. 152, 194103 (2020)                    **
 **                                                                           **
 *******************************************************************************


 TOTAL NUMBERS AND MAXIMUM NUMBERS

  Total number of            - Atomic kinds:                                   5
                             - Atoms:                                        387
                             - Shell sets:                                   387
                             - Shells:                                      2015
                             - Primitive Cartesian functions:               2031
                             - Cartesian basis functions:                   5338
                             - Spherical basis functions:                   4983

  Maximum angular momentum of- Orbital basis functions:                        2
                             - Local part of the GTH pseudopotential:          2
                             - Non-local part of the GTH pseudopotential:      3

 *** WARNING in particle_methods.F:677 :: The distance between the atoms   ***
 *** 77 and 124 is only 0.340 angstrom and thus smaller than the threshold ***
 *** of 0.500 angstrom                                                     ***


 *** WARNING in particle_methods.F:677 :: The distance between the atoms ***
 *** 269 and 316 is only 0.461 angstrom and thus smaller than the        ***
 *** threshold of 0.500 angstrom                                         ***



 SCF PARAMETERS         Density guess:                                    ATOMIC
                        --------------------------------------------------------
                        max_scf:                                             100
                        max_scf_history:                                       0
                        max_diis:                                              4
                        --------------------------------------------------------
                        eps_scf:                                        1.00E-05
                        eps_scf_history:                                0.00E+00
                        eps_diis:                                       0.00E+00
                        eps_eigval:                                     1.00E-05
                        --------------------------------------------------------
                        level_shift [a.u.]:                             0.000000
                        --------------------------------------------------------
                        Outer loop SCF in use 
                        No variables optimised in outer loop
                        eps_scf                                         1.00E-05
                        max_scf                                               50
                        No outer loop optimization
                        step_size                                       5.00E-01

 MD_PAR| Molecular dynamics protocol (MD input parameters)
 MD_PAR| Ensemble type                                                       NVT
 MD_PAR| Number of time steps                                                200
 MD_PAR| Time step [fs]                                                 0.250000
 MD_PAR| Temperature [K]                                              973.000000
 MD_PAR| Temperature tolerance [K]                                      0.000000
 MD_PAR| Print MD information every                                    1 step(s)
 MD_PAR| File type   Print frequency [steps]                          File names
 MD_PAR| Coordinates          1                               HAP_304_md-pos.xyz
 MD_PAR| Velocities           1                             HAP_304_md-vel-1.xyz
 MD_PAR| Energies             1                                HAP_304_md-1.ener
 MD_PAR| Dump                20                             HAP_304_md-1.restart

 ROT| Rotational analysis information
 ROT| Principal axes and moments of inertia [a.u.]
 ROT|                           1                   2                   3
 ROT| Eigenvalues      1.81352033080E+09   6.92143071925E+09   8.26776757594E+09
 ROT|      x              0.999912645440      0.013150393370     -0.001329903297
 ROT|      y             -0.013103250700      0.999440424901      0.030775670507
 ROT|      z              0.001733871289     -0.030755556056      0.999525432124
 ROT| Number of rotovibrational vectors                                        6

 DOF| Calculation of degrees of freedom
 DOF| Number of atoms                                                        387
 DOF| Number of intramolecular constraints                                     0
 DOF| Number of intermolecular constraints                                     0
 DOF| Invariants (translations + rotations)                                    3
 DOF| Degrees of freedom                                                    1158

 DOF| Restraints information
 DOF| Number of intramolecular restraints                                      0
 DOF| Number of intermolecular restraints                                      0

 THERMOSTAT| Thermostat information for PARTICLES
 THERMOSTAT| Type of thermostat            Canonical Sampling/Velocity Rescaling
 THERMOSTAT| CSVR time constant [fs]                                    1.000000
 THERMOSTAT| Initial kinetic energy                           0.000000000000E+00
 THERMOSTAT| End of thermostat information for PARTICLES

 MD_VEL| Velocities initialization
 MD_VEL| Initial temperature [K]                                      973.000000
 MD_VEL| COM velocity            -0.0000000000    -0.0000000000     0.0000000000

 Extrapolation method: initial_guess

 Number of electrons:                                                       2432
 Number of occupied orbitals:                                               1216
 Number of molecular orbitals:                                              1216

 Number of orbital functions:                                               4983
 Number of independent orbital functions:                                   4983


 SCF WAVEFUNCTION OPTIMIZATION

  ----------------------------------- OT ---------------------------------------
  Minimizer      : DIIS                : direct inversion
                                         in the iterative subspace
                                         using   7 DIIS vectors
                                         safer DIIS on
  Preconditioner : FULL_SINGLE_INVERSE : inversion of 
                                         H + eS - 2*(Sc)(c^T*H*c+const)(Sc)^T
  Precond_solver : DEFAULT
  stepsize       :    0.08000000                  energy_gap     :    0.08000000
  eps_taylor     :   0.10000E-15                  max_taylor     :             4
  ----------------------------------- OT ---------------------------------------

  Step     Update method      Time    Convergence         Total energy    Change
  ------------------------------------------------------------------------------
     1 OT DIIS     0.80E-01   28.1     0.04706530     -6346.2815040262 -6.35E+03
     2 OT DIIS     0.80E-01   10.3     0.05864788     -6290.5365035399  5.57E+01
     3 OT DIIS     0.80E-01   10.3     0.01401873     -6588.8924052197 -2.98E+02
     4 OT DIIS     0.80E-01   10.3     0.01083397     -6628.5327767140 -3.96E+01
     5 OT DIIS     0.80E-01   10.1     0.00910585     -6647.1721638853 -1.86E+01
     6 OT DIIS     0.80E-01   10.4     0.00627011     -6663.4166829911 -1.62E+01
     7 OT DIIS     0.80E-01   10.1     0.00494023     -6678.8812933526 -1.55E+01
     8 OT DIIS     0.80E-01   10.1     0.00441809     -6685.8002846784 -6.92E+00
     9 OT DIIS     0.80E-01   10.4     0.00333473     -6695.3213764516 -9.52E+00
    10 OT DIIS     0.80E-01   10.3     0.00278925     -6701.3107736836 -5.99E+00
    11 OT DIIS     0.80E-01   10.2     0.00252905     -6705.4662553730 -4.16E+00
    12 OT DIIS     0.80E-01   10.4     0.00210455     -6708.9702961711 -3.50E+00
    13 OT DIIS     0.80E-01   10.2     0.00190365     -6711.4057931602 -2.44E+00
    14 OT DIIS     0.80E-01   10.3     0.00176387     -6713.4946272860 -2.09E+00
    15 OT DIIS     0.80E-01   10.3     0.00158087     -6715.1550751304 -1.66E+00
    16 OT DIIS     0.80E-01   10.2     0.00148432     -6716.6846002261 -1.53E+00
    17 OT DIIS     0.80E-01   10.3     0.00134402     -6717.7303026201 -1.05E+00
    18 OT DIIS     0.80E-01   10.3     0.00114304     -6718.8580169986 -1.13E+00
    19 OT DIIS     0.80E-01   10.4     0.00107913     -6719.6923006584 -8.34E-01
    20 OT DIIS     0.80E-01   10.4     0.00100142     -6720.4178311463 -7.26E-01
    21 OT DIIS     0.80E-01   10.4     0.00093493     -6721.1180223351 -7.00E-01
    22 OT DIIS     0.80E-01   10.4     0.00089875     -6721.7137562544 -5.96E-01
    23 OT DIIS     0.80E-01   10.3     0.00083518     -6722.2478256767 -5.34E-01
    24 OT DIIS     0.80E-01   10.2     0.00078699     -6722.7284373165 -4.81E-01
    25 OT DIIS     0.80E-01   10.4     0.00074507     -6723.1018839725 -3.73E-01
    26 OT DIIS     0.80E-01   10.2     0.00067972     -6723.5056838156 -4.04E-01
    27 OT DIIS     0.80E-01   10.2     0.00065399     -6723.8697268375 -3.64E-01
    28 OT DIIS     0.80E-01   10.1     0.00061473     -6724.1849537059 -3.15E-01
    29 OT DIIS     0.80E-01   10.5     0.00057643     -6724.4807117130 -2.96E-01
    30 OT DIIS     0.80E-01   10.4     0.00055412     -6724.7274233894 -2.47E-01
    31 OT DIIS     0.80E-01   10.2     0.00052136     -6724.9424120972 -2.15E-01
    32 OT DIIS     0.80E-01   10.4     0.00050103     -6725.1586673175 -2.16E-01
    33 OT DIIS     0.80E-01   10.6     0.00049147     -6725.3448735271 -1.86E-01
    34 OT DIIS     0.80E-01   10.5     0.00045050     -6725.5354626570 -1.91E-01
    35 OT DIIS     0.80E-01   10.2     0.00043193     -6725.7132000415 -1.78E-01
    36 OT DIIS     0.80E-01   10.0     0.00040807     -6725.8556243715 -1.42E-01
    37 OT DIIS     0.80E-01   10.3     0.00038680     -6725.9906799175 -1.35E-01
    38 OT DIIS     0.80E-01   10.3     0.00037799     -6726.1138191092 -1.23E-01
    39 OT DIIS     0.80E-01   10.3     0.00036360     -6726.2287282816 -1.15E-01
    40 OT DIIS     0.80E-01   10.1     0.00034947     -6726.3478861565 -1.19E-01
    41 OT DIIS     0.80E-01   10.2     0.00033922     -6726.4462463665 -9.84E-02
    42 OT DIIS     0.80E-01   10.4     0.00031514     -6726.5355838969 -8.93E-02
    43 OT DIIS     0.80E-01   10.3     0.00030237     -6726.6222566326 -8.67E-02
    44 OT DIIS     0.80E-01    9.9     0.00029124     -6726.6959823319 -7.37E-02
    45 OT DIIS     0.80E-01   10.3     0.00028163     -6726.7735103553 -7.75E-02
    46 OT DIIS     0.80E-01   10.5     0.00027796     -6726.8481148815 -7.46E-02
    47 OT DIIS     0.80E-01   10.3     0.00026379     -6726.9110872095 -6.30E-02
    48 OT DIIS     0.80E-01   10.4     0.00025093     -6726.9724938208 -6.14E-02
    49 OT DIIS     0.80E-01   10.2     0.00024535     -6727.0227225185 -5.02E-02
    50 OT DIIS     0.80E-01   10.1     0.00023309     -6727.0696899911 -4.70E-02
    51 OT DIIS     0.80E-01   10.3     0.00022773     -6727.1242249520 -5.45E-02
    52 OT DIIS     0.80E-01   10.3     0.00022250     -6727.1724427154 -4.82E-02
    53 OT DIIS     0.80E-01   10.3     0.00021270     -6727.2193414777 -4.69E-02
    54 OT DIIS     0.80E-01   10.2     0.00020622     -6727.2597736976 -4.04E-02
    55 OT DIIS     0.80E-01   10.4     0.00019701     -6727.2920393167 -3.23E-02
    56 OT DIIS     0.80E-01   10.1     0.00019104     -6727.3264796720 -3.44E-02
    57 OT DIIS     0.80E-01   10.6     0.00018997     -6727.3607253015 -3.42E-02
    58 OT DIIS     0.80E-01   10.5     0.00018417     -6727.3938154143 -3.31E-02
    59 OT DIIS     0.80E-01   10.1     0.00017790     -6727.4312277621 -3.74E-02
    60 OT DIIS     0.80E-01   10.1     0.00017055     -6727.4589038983 -2.77E-02
    61 OT DIIS     0.80E-01   10.2     0.00016268     -6727.4830894753 -2.42E-02
    62 OT DIIS     0.80E-01   10.2     0.00015958     -6727.5060750893 -2.30E-02
    63 OT DIIS     0.80E-01   10.2     0.00015726     -6727.5281536229 -2.21E-02
    64 OT DIIS     0.80E-01   10.4     0.00015429     -6727.5559649514 -2.78E-02
    65 OT DIIS     0.80E-01   10.0     0.00015385     -6727.5819868768 -2.60E-02
    66 OT DIIS     0.80E-01   10.2     0.00014444     -6727.6019831516 -2.00E-02
    67 OT DIIS     0.80E-01   10.2     0.00013762     -6727.6213115566 -1.93E-02
    68 OT DIIS     0.80E-01   10.1     0.00013391     -6727.6360395981 -1.47E-02
    69 OT DIIS     0.80E-01   10.1     0.00013192     -6727.6530196438 -1.70E-02
    70 OT DIIS     0.80E-01   10.5     0.00013289     -6727.6742182965 -2.12E-02
    71 OT DIIS     0.80E-01   10.3     0.00013051     -6727.6932085090 -1.90E-02
    72 OT DIIS     0.80E-01   10.4     0.00012388     -6727.7116017765 -1.84E-02
    73 OT DIIS     0.80E-01   10.4     0.00011863     -6727.7248740513 -1.33E-02
    74 OT DIIS     0.80E-01   10.1     0.00011397     -6727.7343417847 -9.47E-03
    75 OT DIIS     0.80E-01   10.2     0.00011242     -6727.7471900067 -1.28E-02
    76 OT DIIS     0.80E-01   10.2     0.00011371     -6727.7629590700 -1.58E-02
    77 OT DIIS     0.80E-01   10.1     0.00011242     -6727.7805380677 -1.76E-02
    78 OT DIIS     0.80E-01   10.3     0.00010886     -6727.7966792266 -1.61E-02
    79 OT DIIS     0.80E-01   10.3     0.00010181     -6727.8062864276 -9.61E-03
    80 OT DIIS     0.80E-01   10.4     0.00009690     -6727.8137804798 -7.49E-03
    81 OT DIIS     0.80E-01   10.3     0.00009611     -6727.8216641960 -7.88E-03
    82 OT DIIS     0.80E-01   10.2     0.00009835     -6727.8335417768 -1.19E-02
    83 OT DIIS     0.80E-01   10.2     0.00009787     -6727.8506834866 -1.71E-02
    84 OT DIIS     0.80E-01   10.5     0.00009459     -6727.8644494624 -1.38E-02
    85 OT DIIS     0.80E-01   10.4     0.00008724     -6727.8742381346 -9.79E-03
    86 OT DIIS     0.80E-01   10.4     0.00008232     -6727.8803267821 -6.09E-03
    87 OT DIIS     0.80E-01   10.4     0.00008034     -6727.8843780685 -4.05E-03
    88 OT DIIS     0.80E-01   10.4     0.00008239     -6727.8950432567 -1.07E-02
    89 OT DIIS     0.80E-01   10.5     0.00008530     -6727.9074666340 -1.24E-02
    90 OT DIIS     0.80E-01   10.2     0.00008257     -6727.9189567297 -1.15E-02
    91 OT DIIS     0.80E-01   10.4     0.00007494     -6727.9301617731 -1.12E-02
    92 OT DIIS     0.80E-01   10.2     0.00006961     -6727.9366836802 -6.52E-03
    93 OT DIIS     0.80E-01   10.3     0.00006627     -6727.9403906212 -3.71E-03
    94 OT DIIS     0.80E-01   10.4     0.00006524     -6727.9444574308 -4.07E-03
    95 OT DIIS     0.80E-01   10.4     0.00006915     -6727.9536273048 -9.17E-03
    96 OT DIIS     0.80E-01   10.4     0.00006743     -6727.9622715805 -8.64E-03
    97 OT DIIS     0.80E-01   10.3     0.00006514     -6727.9717179358 -9.45E-03
    98 OT DIIS     0.80E-01   10.4     0.00006172     -6727.9797576686 -8.04E-03
    99 OT DIIS     0.80E-01   10.3     0.00005584     -6727.9853155007 -5.56E-03
   100 OT DIIS     0.80E-01   10.3     0.00005344     -6727.9881393237 -2.82E-03

  Leaving inner SCF loop after reaching   100 steps.


  Electronic density on regular grids:      -2432.0000000007       -0.0000000007
  Core density on regular grids:             2431.9999999988       -0.0000000012
  Total charge density on r-space grids:       -0.0000000019
  Total charge density g-space grids:          -0.0000000019

  Overlap energy of the core charge distribution:              36.65709419645555
  Self energy of the core charge distribution:             -16017.19408509233290
  Core Hamiltonian energy:                                   4502.81497203979143
  Hartree energy:                                            6106.27825876995666
  Exchange-correlation energy:                              -1354.66919189879104
  Dispersion energy:                                           -1.87518733874026

  Total energy:                                             -6727.98813932366011

  outer SCF iter =    1 RMS gradient =   0.53E-04 energy =      -6727.9881393237

  ----------------------------------- OT ---------------------------------------
  Minimizer      : DIIS                : direct inversion
                                         in the iterative subspace
                                         using   7 DIIS vectors
                                         safer DIIS on
  Preconditioner : FULL_SINGLE_INVERSE : inversion of 
                                         H + eS - 2*(Sc)(c^T*H*c+const)(Sc)^T
  Precond_solver : DEFAULT
  stepsize       :    0.08000000                  energy_gap     :    0.08000000
  eps_taylor     :   0.10000E-15                  max_taylor     :             4
  ----------------------------------- OT ---------------------------------------

  Step     Update method      Time    Convergence         Total energy    Change
  ------------------------------------------------------------------------------
     1 OT DIIS     0.80E-01   31.4     0.00036359     -6727.9911017519 -2.96E-03
     2 OT DIIS     0.80E-01    9.6     0.00032294     -6728.0359099251 -4.48E-02
     3 OT DIIS     0.80E-01    9.9     0.00047542     -6728.0467188347 -1.08E-02
     4 OT DIIS     0.80E-01   10.3     0.00043185     -6728.0634211687 -1.67E-02
     5 OT DIIS     0.80E-01   10.5     0.00035320     -6728.0785671392 -1.51E-02
     6 OT DIIS     0.80E-01   10.5     0.00025025     -6728.0905918716 -1.20E-02
     7 OT DIIS     0.80E-01   10.3     0.00023483     -6728.1006385593 -1.00E-02
     8 OT DIIS     0.80E-01   10.3     0.00019893     -6728.1090752164 -8.44E-03
     9 OT DIIS     0.80E-01   10.4     0.00016471     -6728.1158982735 -6.82E-03
    10 OT DIIS     0.80E-01   10.4     0.00017729     -6728.1211150242 -5.22E-03
    11 OT DIIS     0.80E-01   10.2     0.00015696     -6728.1273167685 -6.20E-03
    12 OT DIIS     0.80E-01   10.6     0.00016757     -6728.1320055845 -4.69E-03
    13 OT DIIS     0.80E-01   10.4     0.00018507     -6728.1349510890 -2.95E-03
    14 OT DIIS     0.80E-01   10.3     0.00016764     -6728.1379788271 -3.03E-03
    15 OT DIIS     0.80E-01   10.5     0.00015871     -6728.1408904937 -2.91E-03
    16 OT DIIS     0.80E-01   10.4     0.00015227     -6728.1424742535 -1.58E-03
    17 OT DIIS     0.80E-01   10.2     0.00012706     -6728.1428957618 -4.22E-04
    18 OT DIIS     0.80E-01   10.3     0.00012127     -6728.1453915209 -2.50E-03
    19 OT DIIS     0.80E-01   10.3     0.00010939     -6728.1460543149 -6.63E-04
    20 OT DIIS     0.80E-01   10.3     0.00010061     -6728.1473926362 -1.34E-03
    21 OT DIIS     0.80E-01   10.2     0.00010039     -6728.1486736932 -1.28E-03
    22 OT DIIS     0.80E-01   10.4     0.00009747     -6728.1501615217 -1.49E-03
    23 OT DIIS     0.80E-01   10.4     0.00009922     -6728.1518991576 -1.74E-03
    24 OT DIIS     0.80E-01   10.2     0.00010740     -6728.1534597151 -1.56E-03
    25 OT DIIS     0.80E-01   10.3     0.00010619     -6728.1541981320 -7.38E-04
    26 OT DIIS     0.80E-01   10.3     0.00010530     -6728.1566126043 -2.41E-03
    27 OT DIIS     0.80E-01   10.4     0.00011048     -6728.1567829570 -1.70E-04
    28 OT DIIS     0.80E-01   10.3     0.00010171     -6728.1574932332 -7.10E-04
    29 OT DIIS     0.80E-01   10.4     0.00009446     -6728.1582950556 -8.02E-04
    30 OT DIIS     0.80E-01   10.5     0.00008422     -6728.1591036748 -8.09E-04
    31 OT DIIS     0.80E-01   10.4     0.00007740     -6728.1599930010 -8.89E-04
    32 OT DIIS     0.80E-01   10.5     0.00007730     -6728.1608910050 -8.98E-04
    33 OT DIIS     0.80E-01   10.2     0.00007666     -6728.1615100853 -6.19E-04
    34 OT DIIS     0.80E-01   10.4     0.00007663     -6728.1630710666 -1.56E-03
    35 OT DIIS     0.80E-01   10.4     0.00008832     -6728.1637799711 -7.09E-04
    36 OT DIIS     0.80E-01   10.4     0.00008998     -6728.1643724966 -5.93E-04
    37 OT DIIS     0.80E-01   10.3     0.00008963     -6728.1652010576 -8.29E-04
    38 OT DIIS     0.80E-01   10.5     0.00008464     -6728.1658182360 -6.17E-04
    39 OT DIIS     0.80E-01   10.4     0.00007623     -6728.1663367236 -5.18E-04
    40 OT DIIS     0.80E-01   10.3     0.00007198     -6728.1668624451 -5.26E-04
    41 OT DIIS     0.80E-01   10.4     0.00006638     -6728.1671909795 -3.29E-04
    42 OT DIIS     0.80E-01   10.3     0.00006106     -6728.1680802077 -8.89E-04
    43 OT DIIS     0.80E-01   10.3     0.00006587     -6728.1687060661 -6.26E-04
    44 OT DIIS     0.80E-01   10.5     0.00006789     -6728.1691656283 -4.60E-04
    45 OT DIIS     0.80E-01   10.5     0.00007009     -6728.1699409839 -7.75E-04
    46 OT DIIS     0.80E-01   10.5     0.00007218     -6728.1706183222 -6.77E-04
    47 OT DIIS     0.80E-01   10.4     0.00007043     -6728.1711131995 -4.95E-04
    48 OT DIIS     0.80E-01   10.4     0.00007028     -6728.1715393331 -4.26E-04
    49 OT DIIS     0.80E-01   10.1     0.00006718     -6728.1718111736 -2.72E-04
    50 OT DIIS     0.80E-01   10.4     0.00005832     -6728.1723323461 -5.21E-04
    51 OT DIIS     0.80E-01   10.6     0.00005895     -6728.1728153091 -4.83E-04
    52 OT DIIS     0.80E-01   10.4     0.00005688     -6728.1730534835 -2.38E-04
    53 OT DIIS     0.80E-01   10.7     0.00005515     -6728.1735647700 -5.11E-04
    54 OT DIIS     0.80E-01   10.5     0.00005617     -6728.1740838245 -5.19E-04
    55 OT DIIS     0.80E-01   10.4     0.00005670     -6728.1745436195 -4.60E-04
    56 OT DIIS     0.80E-01   10.4     0.00005935     -6728.1750138741 -4.70E-04
    57 OT DIIS     0.80E-01   10.5     0.00006154     -6728.1754891949 -4.75E-04
    58 OT DIIS     0.80E-01   10.3     0.00005647     -6728.1757695032 -2.80E-04
    59 OT DIIS     0.80E-01   10.5     0.00005808     -6728.1762492596 -4.80E-04
    60 OT DIIS     0.80E-01   10.3     0.00005649     -6728.1763295750 -8.03E-05
    61 OT DIIS     0.80E-01   10.4     0.00005187     -6728.1766754676 -3.46E-04
    62 OT DIIS     0.80E-01   10.3     0.00004951     -6728.1770337576 -3.58E-04
    63 OT DIIS     0.80E-01   10.4     0.00004758     -6728.1773416075 -3.08E-04
    64 OT DIIS     0.80E-01   10.4     0.00004768     -6728.1776935194 -3.52E-04
    65 OT DIIS     0.80E-01   10.4     0.00004973     -6728.1781797638 -4.86E-04
    66 OT DIIS     0.80E-01   10.3     0.00004895     -6728.1784153733 -2.36E-04
    67 OT DIIS     0.80E-01   10.4     0.00005171     -6728.1789442121 -5.29E-04
    68 OT DIIS     0.80E-01   10.4     0.00005487     -6728.1790834333 -1.39E-04
    69 OT DIIS     0.80E-01   10.5     0.00005212     -6728.1793409190 -2.57E-04
    70 OT DIIS     0.80E-01   10.3     0.00004951     -6728.1796051407 -2.64E-04
    71 OT DIIS     0.80E-01   10.4     0.00004585     -6728.1797978536 -1.93E-04
    72 OT DIIS     0.80E-01   10.4     0.00004309     -6728.1800250104 -2.27E-04
    73 OT DIIS     0.80E-01   10.3     0.00004255     -6728.1804033816 -3.78E-04
    74 OT DIIS     0.80E-01   10.5     0.00004146     -6728.1805565346 -1.53E-04
    75 OT DIIS     0.80E-01   10.3     0.00004233     -6728.1809844879 -4.28E-04
    76 OT DIIS     0.80E-01   10.3     0.00004650     -6728.1812465828 -2.62E-04
    77 OT DIIS     0.80E-01   10.5     0.00004695     -6728.1815129293 -2.66E-04
    78 OT DIIS     0.80E-01   10.1     0.00004735     -6728.1817662061 -2.53E-04
    79 OT DIIS     0.80E-01   10.1     0.00004583     -6728.1819251381 -1.59E-04
    80 OT DIIS     0.80E-01   10.3     0.00004297     -6728.1820740963 -1.49E-04
    81 OT DIIS     0.80E-01   10.4     0.00004125     -6728.1824086803 -3.35E-04
    82 OT DIIS     0.80E-01   10.4     0.00003869     -6728.1824508830 -4.22E-05
    83 OT DIIS     0.80E-01   10.4     0.00003704     -6728.1827517001 -3.01E-04
    84 OT DIIS     0.80E-01   10.3     0.00003862     -6728.1829921534 -2.40E-04
    85 OT DIIS     0.80E-01   10.3     0.00003910     -6728.1832223839 -2.30E-04
    86 OT DIIS     0.80E-01   10.4     0.00004055     -6728.1834714859 -2.49E-04
    87 OT DIIS     0.80E-01   10.6     0.00004149     -6728.1836785656 -2.07E-04
    88 OT DIIS     0.80E-01   10.5     0.00004105     -6728.1838449974 -1.66E-04
    89 OT DIIS     0.80E-01   10.3     0.00004066     -6728.1841727092 -3.28E-04
    90 OT DIIS     0.80E-01   10.4     0.00003905     -6728.1841423965  3.03E-05
    91 OT DIIS     0.80E-01   10.5     0.00003597     -6728.1843537480 -2.11E-04
    92 OT DIIS     0.80E-01   10.5     0.00003581     -6728.1845544614 -2.01E-04
    93 OT DIIS     0.80E-01   10.3     0.00003475     -6728.1847173197 -1.63E-04
    94 OT DIIS     0.80E-01   10.6     0.00003472     -6728.1849046867 -1.87E-04
    95 OT DIIS     0.80E-01   10.3     0.00003522     -6728.1850972351 -1.93E-04
    96 OT DIIS     0.80E-01   10.4     0.00003565     -6728.1852813458 -1.84E-04
    97 OT DIIS     0.80E-01   10.6     0.00003642     -6728.1855966205 -3.15E-04
    98 OT DIIS     0.80E-01   10.3     0.00003770     -6728.1856312251 -3.46E-05
    99 OT DIIS     0.80E-01   10.3     0.00003563     -6728.1857827426 -1.52E-04
   100 OT DIIS     0.80E-01   10.4     0.00003581     -6728.1859759166 -1.93E-04

  Leaving inner SCF loop after reaching   100 steps.


  Electronic density on regular grids:      -2432.0000000006       -0.0000000006
  Core density on regular grids:             2431.9999999988       -0.0000000012
  Total charge density on r-space grids:       -0.0000000018
  Total charge density g-space grids:          -0.0000000018

  Overlap energy of the core charge distribution:              36.65709419645555
  Self energy of the core charge distribution:             -16017.19408509233290
  Core Hamiltonian energy:                                   4502.32484561825731
  Hartree energy:                                            6106.54167511980268
  Exchange-correlation energy:                              -1354.64031842008171
  Dispersion energy:                                           -1.87518733874026

  Total energy:                                             -6728.18597591663820

  outer SCF iter =    2 RMS gradient =   0.36E-04 energy =      -6728.1859759166

  ----------------------------------- OT ---------------------------------------
  Minimizer      : DIIS                : direct inversion
                                         in the iterative subspace
                                         using   7 DIIS vectors
                                         safer DIIS on
  Preconditioner : FULL_SINGLE_INVERSE : inversion of 
                                         H + eS - 2*(Sc)(c^T*H*c+const)(Sc)^T
  Precond_solver : DEFAULT
  stepsize       :    0.08000000                  energy_gap     :    0.08000000
  eps_taylor     :   0.10000E-15                  max_taylor     :             4
  ----------------------------------- OT ---------------------------------------

  Step     Update method      Time    Convergence         Total energy    Change
  ------------------------------------------------------------------------------
     1 OT DIIS     0.80E-01   29.9     0.00003590     -6728.1860854114 -1.09E-04
     2 OT DIIS     0.80E-01    9.4     0.00015528     -6728.1858510251  2.34E-04
     3 OT DIIS     0.80E-01    9.6     0.00003225     -6728.1865529648 -7.02E-04
     4 OT DIIS     0.80E-01    9.7     0.00002943     -6728.1866492242 -9.63E-05
     5 OT DIIS     0.80E-01   10.3     0.00004555     -6728.1874902378 -8.41E-04
     6 OT DIIS     0.80E-01   10.2     0.00005580     -6728.1917497305 -4.26E-03
     7 OT DIIS     0.80E-01   10.5     0.00003756     -6728.1926371688 -8.87E-04
     8 OT SD       0.80E-01   10.3     0.00003996     -6728.1926576301 -2.05E-05
     9 OT DIIS     0.80E-01   10.5     0.00009490     -6728.1924851899  1.72E-04
    10 OT DIIS     0.80E-01   10.4     0.00004006     -6728.1929020245 -4.17E-04
    11 OT SD       0.80E-01   10.6     0.00004306     -6728.1935614963 -6.59E-04
    12 OT DIIS     0.80E-01   10.4     0.00027928     -6728.1915328846  2.03E-03
    13 OT DIIS     0.80E-01   10.5     0.00003296     -6728.1937578735 -2.22E-03
    14 OT DIIS     0.80E-01   10.3     0.00002029     -6728.1939565263 -1.99E-04
    15 OT SD       0.80E-01   10.3     0.00002211     -6728.1942971800 -3.41E-04
    16 OT DIIS     0.80E-01   10.3     0.00008369     -6728.1942277271  6.95E-05
    17 OT DIIS     0.80E-01   10.2     0.00002614     -6728.1948428237 -6.15E-04
    18 OT SD       0.80E-01   10.1     0.00002205     -6728.1950160046 -1.73E-04
    19 OT DIIS     0.80E-01   10.4     0.00009707     -6728.1948704169  1.46E-04
    20 OT DIIS     0.80E-01   10.4     0.00002725     -6728.1954454944 -5.75E-04
    21 OT DIIS     0.80E-01   10.3     0.00002263     -6728.1959856106 -5.40E-04
    22 OT SD       0.80E-01   10.3     0.00002857     -6728.1967977322 -8.12E-04
    23 OT DIIS     0.80E-01   10.5     0.00015443     -6728.1961896579  6.08E-04
    24 OT DIIS     0.80E-01   10.5     0.00001995     -6728.1963373610 -1.48E-04
    25 OT SD       0.80E-01   10.5     0.00002427     -6728.1973610553 -1.02E-03
    26 OT DIIS     0.80E-01   10.5     0.00012799     -6728.1969563759  4.05E-04
    27 OT SD       0.80E-01   10.2     0.00001854     -6728.1974744791 -5.18E-04
    28 OT DIIS     0.80E-01   10.4     0.00009079     -6728.1973368073  1.38E-04
    29 OT SD       0.80E-01   10.3     0.00001800     -6728.1981764952 -8.40E-04
    30 OT DIIS     0.80E-01   10.2     0.00008148     -6728.1980678731  1.09E-04
    31 OT DIIS     0.80E-01   10.5     0.00001879     -6728.1981642180 -9.63E-05
    32 OT SD       0.80E-01   10.5     0.00001704     -6728.1986330169 -4.69E-04
    33 OT DIIS     0.80E-01   10.2     0.00007889     -6728.1985285499  1.04E-04
    34 OT DIIS     0.80E-01   10.4     0.00001569     -6728.1989621200 -4.34E-04
    35 OT DIIS     0.80E-01   10.4     0.00001473     -6728.1990424674 -8.03E-05
    36 OT SD       0.80E-01   10.4     0.00001659     -6728.1996468219 -6.04E-04
    37 OT SD       0.80E-01   10.4     0.00006063     -6728.1996046627  4.22E-05
    38 OT DIIS     0.80E-01   10.2     0.00042673     -6728.1945365865  5.07E-03
    39 OT DIIS     0.80E-01   10.6     0.00001367     -6728.1998964925 -5.36E-03
    40 OT DIIS     0.80E-01   10.4     0.00001342     -6728.2000178015 -1.21E-04
    41 OT SD       0.80E-01   10.6     0.00001393     -6728.2002467279 -2.29E-04
    42 OT DIIS     0.80E-01   10.5     0.00005245     -6728.2002288540  1.79E-05
    43 OT SD       0.80E-01   10.2     0.00001521     -6728.2008599428 -6.31E-04
    44 OT SD       0.80E-01   10.3     0.00005481     -6728.2008199719  4.00E-05
    45 OT DIIS     0.80E-01   10.4     0.00036061     -6728.1970346456  3.79E-03
    46 OT DIIS     0.80E-01   10.4     0.00001408     -6728.2014206503 -4.39E-03
    47 OT DIIS     0.80E-01   10.3     0.00001657     -6728.2016908119 -2.70E-04
    48 OT SD       0.80E-01   10.2     0.00001608     -6728.2017415354 -5.07E-05
    49 OT SD       0.80E-01   10.6     0.00004140     -6728.2017258183  1.57E-05
    50 OT DIIS     0.80E-01   10.2     0.00022177     -6728.2001967001  1.53E-03
    51 OT DIIS     0.80E-01   10.4     0.00001127     -6728.2018308003 -1.63E-03
    52 OT DIIS     0.80E-01   10.4     0.00001094     -6728.2018374842 -6.68E-06
    53 OT DIIS     0.80E-01   10.4     0.00001156     -6728.2018956374 -5.82E-05
    54 OT DIIS     0.80E-01   10.2     0.00001068     -6728.2019035595 -7.92E-06
    55 OT SD       0.80E-01   10.5     0.00001114     -6728.2019858888 -8.23E-05
    56 OT DIIS     0.80E-01   10.4     0.00004117     -6728.2019840010  1.89E-06
    57 OT DIIS     0.80E-01   10.6     0.00001116     -6728.2020936544 -1.10E-04
    58 OT SD       0.80E-01   10.4     0.00001188     -6728.2023040341 -2.10E-04
    59 OT DIIS     0.80E-01   10.3     0.00005085     -6728.2022682613  3.58E-05
    60 OT DIIS     0.80E-01   10.3     0.00001253     -6728.2024448247 -1.77E-04
    61 OT DIIS     0.80E-01   10.7     0.00001400     -6728.2026016801 -1.57E-04
    62 OT SD       0.80E-01   10.5     0.00001244     -6728.2028685562 -2.67E-04
    63 OT DIIS     0.80E-01   10.5     0.00006270     -6728.2027922266  7.63E-05
    64 OT DIIS     0.80E-01   10.4     0.00001019     -6728.2028341023 -4.19E-05
    65 OT SD       0.80E-01   10.3     0.00001260     -6728.2032074402 -3.73E-04
    66 OT DIIS     0.80E-01   10.6     0.00007004     -6728.2031016873  1.06E-04
    67 OT DIIS     0.80E-01   10.4     0.00000970     -6728.2031985035 -9.68E-05

  *** SCF run converged in    67 steps ***


  Electronic density on regular grids:      -2432.0000000006       -0.0000000006
  Core density on regular grids:             2431.9999999988       -0.0000000012
  Total charge density on r-space grids:       -0.0000000018
  Total charge density g-space grids:          -0.0000000018

  Overlap energy of the core charge distribution:              36.65709419645555
  Self energy of the core charge distribution:             -16017.19408509233290
  Core Hamiltonian energy:                                   4502.24703272694660
  Hartree energy:                                            6106.59313753889910
  Exchange-correlation energy:                              -1354.63119053477521
  Dispersion energy:                                           -1.87518733874026

  Total energy:                                             -6728.20319850354736

  outer SCF iter =    3 RMS gradient =   0.97E-05 energy =      -6728.2031985035
  outer SCF loop converged in   3 iterations or  267 steps


 ENERGY| Total FORCE_EVAL ( QS ) energy [hartree]          -6728.203448358011883

 MD_INI| MD initialization
 MD_INI| Potential energy [hartree]                          -0.672820344836E+04
 MD_INI| Kinetic energy [hartree]                             0.178407925950E+01
 MD_INI| Temperature [K]                                              973.000000
 MD_INI| Pressure [bar]                                       4.780981557556E+05
 MD_INI| Cell volume [bohr^3]                                 1.308601720879E+05
 MD_INI| Cell volume [ang^3]                                  1.939147658976E+04
 MD_INI| Cell lengths [bohr]      6.16914211E+01  4.40970598E+01  4.81031015E+01
 MD_INI| Cell lengths [ang]       3.26456940E+01  2.33351590E+01  2.54550650E+01
 MD_INI| Cell angles [deg]        9.00000000E+01  9.00000000E+01  9.00000000E+01

 Extrapolation method: ASPC

 Number of electrons:                                                       2432
 Number of occupied orbitals:                                               1216
 Number of molecular orbitals:                                              1216

 Number of orbital functions:                                               4983
 Number of independent orbital functions:                                   4983


 SCF WAVEFUNCTION OPTIMIZATION

  ----------------------------------- OT ---------------------------------------
  Minimizer      : DIIS                : direct inversion
                                         in the iterative subspace
                                         using   7 DIIS vectors
                                         safer DIIS on
  Preconditioner : FULL_SINGLE_INVERSE : inversion of 
                                         H + eS - 2*(Sc)(c^T*H*c+const)(Sc)^T
  Precond_solver : DEFAULT
  stepsize       :    0.08000000                  energy_gap     :    0.08000000
  eps_taylor     :   0.10000E-15                  max_taylor     :             4
  ----------------------------------- OT ---------------------------------------

  Step     Update method      Time    Convergence         Total energy    Change
  ------------------------------------------------------------------------------
     1 OT DIIS     0.80E-01   18.4     0.00106756     -6755.4175740927 -6.76E+03
     2 OT DIIS     0.80E-01   10.0     0.00141587     -6755.5560880791 -1.39E-01
     3 OT DIIS     0.80E-01   10.6     0.00104046     -6755.6713321182 -1.15E-01
     4 OT DIIS     0.80E-01   10.5     0.00119099     -6755.6965177804 -2.52E-02
     5 OT DIIS     0.80E-01   10.7     0.00087617     -6755.7395939979 -4.31E-02
     6 OT DIIS     0.80E-01   10.8     0.00074705     -6755.7637146115 -2.41E-02
     7 OT DIIS     0.80E-01   11.0     0.00051121     -6755.7822791642 -1.86E-02
     8 OT DIIS     0.80E-01   11.2     0.00036512     -6755.7912479246 -8.97E-03
     9 OT DIIS     0.80E-01   11.0     0.00036458     -6755.7926592777 -1.41E-03
    10 OT DIIS     0.80E-01   11.0     0.00024752     -6755.7958356948 -3.18E-03
    11 OT DIIS     0.80E-01   10.9     0.00017471     -6755.7977003879 -1.86E-03
    12 OT DIIS     0.80E-01   11.1     0.00016919     -6755.7984538066 -7.53E-04
    13 OT DIIS     0.80E-01   10.9     0.00013440     -6755.7991446992 -6.91E-04
    14 OT DIIS     0.80E-01   11.2     0.00010671     -6755.7997673826 -6.23E-04
    15 OT DIIS     0.80E-01   11.0     0.00008208     -6755.8002832042 -5.16E-04
    16 OT DIIS     0.80E-01   11.2     0.00006857     -6755.8006826762 -3.99E-04
    17 OT DIIS     0.80E-01   10.9     0.00007924     -6755.8010685750 -3.86E-04
    18 OT DIIS     0.80E-01   10.7     0.00007872     -6755.8012667727 -1.98E-04
    19 OT DIIS     0.80E-01   11.0     0.00007039     -6755.8014982482 -2.31E-04
    20 OT DIIS     0.80E-01   11.0     0.00007100     -6755.8016771165 -1.79E-04
    21 OT DIIS     0.80E-01   11.1     0.00006985     -6755.8017967966 -1.20E-04
    22 OT DIIS     0.80E-01   10.9     0.00005876     -6755.8019472067 -1.50E-04
    23 OT DIIS     0.80E-01   10.9     0.00004634     -6755.8020651537 -1.18E-04
    24 OT DIIS     0.80E-01   10.8     0.00003468     -6755.8021707574 -1.06E-04
    25 OT DIIS     0.80E-01   11.0     0.00003317     -6755.8023345805 -1.64E-04
    26 OT DIIS     0.80E-01   10.9     0.00003491     -6755.8024168503 -8.23E-05
    27 OT DIIS     0.80E-01   11.0     0.00003358     -6755.8025094084 -9.26E-05
    28 OT DIIS     0.80E-01   10.9     0.00003567     -6755.8026159691 -1.07E-04
    29 OT DIIS     0.80E-01   10.9     0.00003883     -6755.8027074186 -9.14E-05
    30 OT DIIS     0.80E-01   10.9     0.00003739     -6755.8027769007 -6.95E-05
    31 OT DIIS     0.80E-01   10.8     0.00003487     -6755.8028197318 -4.28E-05
    32 OT DIIS     0.80E-01   11.0     0.00002831     -6755.8028560196 -3.63E-05
    33 OT DIIS     0.80E-01   11.0     0.00002446     -6755.8029507860 -9.48E-05
    34 OT DIIS     0.80E-01   11.2     0.00002432     -6755.8029944640 -4.37E-05
    35 OT DIIS     0.80E-01   11.0     0.00002188     -6755.8030388665 -4.44E-05
    36 OT DIIS     0.80E-01   11.0     0.00002158     -6755.8031001617 -6.13E-05
    37 OT DIIS     0.80E-01   10.9     0.00002297     -6755.8031655747 -6.54E-05
    38 OT DIIS     0.80E-01   11.1     0.00002384     -6755.8032174422 -5.19E-05
    39 OT DIIS     0.80E-01   11.0     0.00002482     -6755.8032595837 -4.21E-05
    40 OT DIIS     0.80E-01   11.0     0.00002340     -6755.8032942158 -3.46E-05
    41 OT DIIS     0.80E-01   11.1     0.00002086     -6755.8033525008 -5.83E-05
    42 OT DIIS     0.80E-01   11.1     0.00002152     -6755.8033866613 -3.42E-05
    43 OT DIIS     0.80E-01   11.1     0.00001929     -6755.8034057705 -1.91E-05
    44 OT DIIS     0.80E-01   10.9     0.00001770     -6755.8034410563 -3.53E-05
    45 OT DIIS     0.80E-01   10.9     0.00001715     -6755.8034840707 -4.30E-05
    46 OT DIIS     0.80E-01   11.0     0.00001694     -6755.8035185819 -3.45E-05
    47 OT DIIS     0.80E-01   11.1     0.00001748     -6755.8035540426 -3.55E-05
    48 OT DIIS     0.80E-01   11.2     0.00001767     -6755.8035920753 -3.80E-05
    49 OT DIIS     0.80E-01   11.0     0.00001680     -6755.8036311126 -3.90E-05
    50 OT DIIS     0.80E-01   10.8     0.00001815     -6755.8036734215 -4.23E-05
    51 OT DIIS     0.80E-01   11.1     0.00001794     -6755.8036889820 -1.56E-05
    52 OT DIIS     0.80E-01   10.9     0.00001698     -6755.8037099522 -2.10E-05
    53 OT DIIS     0.80E-01   10.8     0.00001606     -6755.8037404023 -3.05E-05
    54 OT DIIS     0.80E-01   11.0     0.00001490     -6755.8037624602 -2.21E-05
    55 OT DIIS     0.80E-01   10.6     0.00001435     -6755.8037876689 -2.52E-05
    56 OT DIIS     0.80E-01   11.3     0.00001407     -6755.8038174952 -2.98E-05
    57 OT DIIS     0.80E-01   11.1     0.00001353     -6755.8038424012 -2.49E-05
    58 OT DIIS     0.80E-01   11.0     0.00001428     -6755.8038836480 -4.12E-05
    59 OT DIIS     0.80E-01   10.9     0.00001524     -6755.8039080327 -2.44E-05
    60 OT DIIS     0.80E-01   11.1     0.00001533     -6755.8039280122 -2.00E-05
    61 OT DIIS     0.80E-01   11.1     0.00001533     -6755.8039524599 -2.44E-05
    62 OT DIIS     0.80E-01   11.0     0.00001448     -6755.8039682725 -1.58E-05
    63 OT DIIS     0.80E-01   10.9     0.00001374     -6755.8039879163 -1.96E-05
    64 OT DIIS     0.80E-01   11.2     0.00001302     -6755.8040118898 -2.40E-05
    65 OT DIIS     0.80E-01   11.0     0.00001204     -6755.8040238717 -1.20E-05
    66 OT DIIS     0.80E-01   11.0     0.00001189     -6755.8040556991 -3.18E-05
    67 OT DIIS     0.80E-01   10.7     0.00001249     -6755.8040800612 -2.44E-05
    68 OT DIIS     0.80E-01   11.2     0.00001286     -6755.8041009493 -2.09E-05
    69 OT DIIS     0.80E-01   11.1     0.00001338     -6755.8041246797 -2.37E-05
    70 OT DIIS     0.80E-01   11.2     0.00001341     -6755.8041420908 -1.74E-05
    71 OT DIIS     0.80E-01   11.1     0.00001324     -6755.8041620908 -2.00E-05
    72 OT DIIS     0.80E-01   10.9     0.00001279     -6755.8041849996 -2.29E-05
    73 OT DIIS     0.80E-01   10.9     0.00001183     -6755.8041852939 -2.94E-07
    74 OT DIIS     0.80E-01   11.1     0.00001109     -6755.8042110112 -2.57E-05
    75 OT DIIS     0.80E-01   11.2     0.00001115     -6755.8042310712 -2.01E-05
    76 OT DIIS     0.80E-01   10.8     0.00001112     -6755.8042474825 -1.64E-05
    77 OT DIIS     0.80E-01   11.1     0.00001134     -6755.8042671721 -1.97E-05
    78 OT DIIS     0.80E-01   11.0     0.00001155     -6755.8042854937 -1.83E-05
    79 OT DIIS     0.80E-01   11.2     0.00001179     -6755.8043078482 -2.24E-05
    80 OT DIIS     0.80E-01   11.1     0.00001194     -6755.8043336349 -2.58E-05
    81 OT DIIS     0.80E-01   11.3     0.00001173     -6755.8043307750  2.86E-06
    82 OT DIIS     0.80E-01   11.2     0.00001091     -6755.8043519195 -2.11E-05
    83 OT DIIS     0.80E-01   11.1     0.00001086     -6755.8043701127 -1.82E-05
    84 OT DIIS     0.80E-01   11.3     0.00001055     -6755.8043820359 -1.19E-05
    85 OT DIIS     0.80E-01   11.0     0.00001035     -6755.8043960469 -1.40E-05
    86 OT DIIS     0.80E-01   11.1     0.00001021     -6755.8044107504 -1.47E-05
    87 OT DIIS     0.80E-01   10.5     0.00001022     -6755.8044300760 -1.93E-05
    88 OT DIIS     0.80E-01   10.9     0.00001049     -6755.8044549924 -2.49E-05
    89 OT DIIS     0.80E-01   11.0     0.00001088     -6755.8044584460 -3.45E-06
    90 OT DIIS     0.80E-01   11.1     0.00001039     -6755.8044769643 -1.85E-05
    91 OT DIIS     0.80E-01   10.9     0.00001064     -6755.8044972594 -2.03E-05
    92 OT DIIS     0.80E-01   11.1     0.00001047     -6755.8045068260 -9.57E-06
    93 OT DIIS     0.80E-01   10.9     0.00001021     -6755.8045153784 -8.55E-06
    94 OT DIIS     0.80E-01   11.0     0.00000976     -6755.8045262785 -1.09E-05

  *** SCF run converged in    94 steps ***


  Electronic density on regular grids:      -2431.9999999999        0.0000000001
  Core density on regular grids:             2431.9999999988       -0.0000000012
  Total charge density on r-space grids:       -0.0000000010
  Total charge density g-space grids:          -0.0000000010

  Overlap energy of the core charge distribution:              19.81274839974147
  Self energy of the core charge distribution:             -16017.19408509233290
  Core Hamiltonian energy:                                   4497.14667285627547
  Hartree energy:                                            6100.43795224397763
  Exchange-correlation energy:                              -1354.13498468921762
  Dispersion energy:                                           -1.87282999696007

  Total energy:                                             -6755.80452627851537

  outer SCF iter =    1 RMS gradient =   0.98E-05 energy =      -6755.8045262785
  outer SCF loop converged in   1 iterations or   94 steps


 ENERGY| Total FORCE_EVAL ( QS ) energy [hartree]          -6755.804541605340091

 MD| ***************************************************************************
 MD| Step number                                                               1
 MD| Time [fs]                                                          0.250000
 MD| Conserved quantity [hartree]                            -0.673047875221E+04
 MD| ---------------------------------------------------------------------------
 MD|                                          Instantaneous             Averages
 MD| CPU time per MD step [s]                   3916.534623          3916.534623
 MD| Energy drift per atom [K]          -0.331227460526E+04   0.000000000000E+00
 MD| Potential energy [hartree]         -0.675580454161E+04  -0.675580454161E+04
 MD| Kinetic energy [hartree]            0.226543352377E+02   0.226543352377E+02
 MD| Temperature [K]                           12355.206793         12355.206793
 MD| Pressure [bar]                      5.528849664157E+05   5.528849664157E+05
 MD| ***************************************************************************
 MD| Estimated peak process memory after this step [MiB]                   18083

 Extrapolation method: ASPC

 Number of electrons:                                                       2432
 Number of occupied orbitals:                                               1216
 Number of molecular orbitals:                                              1216

 Number of orbital functions:                                               4983
 Number of independent orbital functions:                                   4983


 SCF WAVEFUNCTION OPTIMIZATION

  ----------------------------------- OT ---------------------------------------
  Minimizer      : DIIS                : direct inversion
                                         in the iterative subspace
                                         using   7 DIIS vectors
                                         safer DIIS on
  Preconditioner : FULL_SINGLE_INVERSE : inversion of 
                                         H + eS - 2*(Sc)(c^T*H*c+const)(Sc)^T
  Precond_solver : DEFAULT
  stepsize       :    0.08000000                  energy_gap     :    0.08000000
  eps_taylor     :   0.10000E-15                  max_taylor     :             4
  ----------------------------------- OT ---------------------------------------

  Step     Update method      Time    Convergence         Total energy    Change
  ------------------------------------------------------------------------------
     1 OT DIIS     0.80E-01   18.9     0.00116351     -6791.5314527078 -6.79E+03
     2 OT DIIS     0.80E-01   10.7     0.00135959     -6791.7931372666 -2.62E-01
     3 OT DIIS     0.80E-01   11.0     0.00121178     -6791.8844136242 -9.13E-02
     4 OT DIIS     0.80E-01   11.1     0.00114988     -6791.9424692924 -5.81E-02
     5 OT DIIS     0.80E-01   11.0     0.00084505     -6792.0023901134 -5.99E-02
     6 OT DIIS     0.80E-01   11.1     0.00060552     -6792.0346454690 -3.23E-02
     7 OT DIIS     0.80E-01   11.0     0.00048458     -6792.0503093272 -1.57E-02
     8 OT DIIS     0.80E-01   11.1     0.00040783     -6792.0597094153 -9.40E-03
     9 OT DIIS     0.80E-01   11.0     0.00026888     -6792.0671558016 -7.45E-03
    10 OT DIIS     0.80E-01   11.0     0.00025665     -6792.0678910576 -7.35E-04
    11 OT DIIS     0.80E-01   10.8     0.00018221     -6792.0718029841 -3.91E-03
    12 OT DIIS     0.80E-01   11.2     0.00016859     -6792.0733099286 -1.51E-03
    13 OT DIIS     0.80E-01   11.0     0.00015988     -6792.0741666610 -8.57E-04
    14 OT DIIS     0.80E-01   11.3     0.00013216     -6792.0751877031 -1.02E-03
    15 OT DIIS     0.80E-01   11.3     0.00011922     -6792.0762022976 -1.01E-03
    16 OT DIIS     0.80E-01   11.0     0.00010946     -6792.0769444156 -7.42E-04
    17 OT DIIS     0.80E-01   10.9     0.00008728     -6792.0776259003 -6.81E-04
    18 OT DIIS     0.80E-01   10.6     0.00010094     -6792.0782490877 -6.23E-04
    19 OT DIIS     0.80E-01   10.8     0.00007996     -6792.0789319934 -6.83E-04
    20 OT DIIS     0.80E-01   11.0     0.00008522     -6792.0793810777 -4.49E-04
    21 OT DIIS     0.80E-01   11.0     0.00008487     -6792.0798156855 -4.35E-04
    22 OT DIIS     0.80E-01   10.9     0.00008054     -6792.0801512158 -3.36E-04
    23 OT DIIS     0.80E-01   11.0     0.00007489     -6792.0806044990 -4.53E-04
    24 OT DIIS     0.80E-01   11.2     0.00007253     -6792.0808426145 -2.38E-04
    25 OT DIIS     0.80E-01   11.1     0.00005787     -6792.0810236602 -1.81E-04
    26 OT DIIS     0.80E-01   10.9     0.00005793     -6792.0814767886 -4.53E-04
    27 OT DIIS     0.80E-01   11.0     0.00005114     -6792.0816369939 -1.60E-04
    28 OT DIIS     0.80E-01   11.1     0.00005164     -6792.0818652561 -2.28E-04
    29 OT DIIS     0.80E-01   10.9     0.00005021     -6792.0821271071 -2.62E-04
    30 OT DIIS     0.80E-01   11.4     0.00005174     -6792.0823239884 -1.97E-04
    31 OT DIIS     0.80E-01   11.2     0.00004910     -6792.0825768642 -2.53E-04
    32 OT DIIS     0.80E-01   10.8     0.00005238     -6792.0827033635 -1.26E-04
    33 OT DIIS     0.80E-01   10.9     0.00004561     -6792.0827824912 -7.91E-05
    34 OT DIIS     0.80E-01   11.1     0.00004246     -6792.0831110568 -3.29E-04
    35 OT DIIS     0.80E-01   11.0     0.00004131     -6792.0831388582 -2.78E-05
    36 OT DIIS     0.80E-01   10.9     0.00003888     -6792.0832642351 -1.25E-04
    37 OT DIIS     0.80E-01   11.3     0.00003602     -6792.0834185551 -1.54E-04
    38 OT DIIS     0.80E-01   10.9     0.00003597     -6792.0835425266 -1.24E-04
    39 OT DIIS     0.80E-01   11.4     0.00003375     -6792.0836847185 -1.42E-04
    40 OT DIIS     0.80E-01   11.3     0.00003687     -6792.0837763265 -9.16E-05
    41 OT DIIS     0.80E-01   11.2     0.00003431     -6792.0838469619 -7.06E-05
    42 OT DIIS     0.80E-01   10.9     0.00003152     -6792.0840586361 -2.12E-04
    43 OT DIIS     0.80E-01   11.2     0.00003414     -6792.0840872972 -2.87E-05
    44 OT DIIS     0.80E-01   10.9     0.00003259     -6792.0841647843 -7.75E-05
    45 OT DIIS     0.80E-01   10.9     0.00003034     -6792.0842633158 -9.85E-05
    46 OT DIIS     0.80E-01   11.0     0.00002944     -6792.0843470314 -8.37E-05
    47 OT DIIS     0.80E-01   11.0     0.00002670     -6792.0844260824 -7.91E-05
    48 OT DIIS     0.80E-01   11.1     0.00002782     -6792.0844887519 -6.27E-05
    49 OT DIIS     0.80E-01   10.9     0.00002608     -6792.0845468944 -5.81E-05
    50 OT DIIS     0.80E-01   11.2     0.00002377     -6792.0846683561 -1.21E-04
    51 OT DIIS     0.80E-01   11.3     0.00002643     -6792.0847209005 -5.25E-05
    52 OT DIIS     0.80E-01   10.8     0.00002630     -6792.0847802809 -5.94E-05
    53 OT DIIS     0.80E-01   11.0     0.00002574     -6792.0848502058 -6.99E-05
    54 OT DIIS     0.80E-01   11.2     0.00002555     -6792.0849178906 -6.77E-05
    55 OT DIIS     0.80E-01   11.1     0.00002336     -6792.0849631151 -4.52E-05
    56 OT DIIS     0.80E-01   11.2     0.00002392     -6792.0850086026 -4.55E-05
    57 OT DIIS     0.80E-01   10.8     0.00002225     -6792.0850559817 -4.74E-05
    58 OT DIIS     0.80E-01   11.0     0.00001966     -6792.0851216234 -6.56E-05
    59 OT DIIS     0.80E-01   11.2     0.00002078     -6792.0851753959 -5.38E-05
    60 OT DIIS     0.80E-01   11.0     0.00002085     -6792.0852212567 -4.59E-05
    61 OT DIIS     0.80E-01   11.2     0.00002091     -6792.0852733374 -5.21E-05
    62 OT DIIS     0.80E-01   11.2     0.00002129     -6792.0853327652 -5.94E-05
    63 OT DIIS     0.80E-01   11.0     0.00002037     -6792.0853649441 -3.22E-05
    64 OT DIIS     0.80E-01   10.6     0.00002127     -6792.0854070987 -4.22E-05
    65 OT DIIS     0.80E-01   11.1     0.00002034     -6792.0854541043 -4.70E-05
    66 OT DIIS     0.80E-01   10.7     0.00001785     -6792.0854818293 -2.77E-05
    67 OT DIIS     0.80E-01   11.2     0.00001798     -6792.0855315066 -4.97E-05
    68 OT DIIS     0.80E-01   11.2     0.00001775     -6792.0855647151 -3.32E-05
    69 OT DIIS     0.80E-01   11.1     0.00001751     -6792.0856013283 -3.66E-05
    70 OT DIIS     0.80E-01   11.1     0.00001757     -6792.0856491199 -4.78E-05
    71 OT DIIS     0.80E-01   11.3     0.00001728     -6792.0856753621 -2.62E-05
    72 OT DIIS     0.80E-01   11.1     0.00001802     -6792.0857175699 -4.22E-05
    73 OT DIIS     0.80E-01   10.7     0.00001803     -6792.0857676887 -5.01E-05
    74 OT DIIS     0.80E-01   11.1     0.00001656     -6792.0857734241 -5.74E-06
    75 OT DIIS     0.80E-01   11.3     0.00001644     -6792.0858227931 -4.94E-05
    76 OT DIIS     0.80E-01   11.3     0.00001635     -6792.0858489764 -2.62E-05
    77 OT DIIS     0.80E-01   11.1     0.00001593     -6792.0858742499 -2.53E-05
    78 OT DIIS     0.80E-01   11.1     0.00001548     -6792.0859108663 -3.66E-05
    79 OT DIIS     0.80E-01   11.0     0.00001504     -6792.0859300750 -1.92E-05
    80 OT DIIS     0.80E-01   11.0     0.00001517     -6792.0859663840 -3.63E-05
    81 OT DIIS     0.80E-01   11.1     0.00001538     -6792.0860131096 -4.67E-05
    82 OT DIIS     0.80E-01   10.8     0.00001488     -6792.0860132138 -1.04E-07
    83 OT DIIS     0.80E-01   11.1     0.00001473     -6792.0860612087 -4.80E-05
    84 OT DIIS     0.80E-01   11.0     0.00001512     -6792.0860875520 -2.63E-05
    85 OT DIIS     0.80E-01   11.3     0.00001505     -6792.0861073849 -1.98E-05
    86 OT DIIS     0.80E-01   11.2     0.00001449     -6792.0861356334 -2.82E-05
    87 OT DIIS     0.80E-01   10.9     0.00001395     -6792.0861485959 -1.30E-05
    88 OT DIIS     0.80E-01   10.9     0.00001359     -6792.0861778708 -2.93E-05
    89 OT DIIS     0.80E-01   10.8     0.00001348     -6792.0862176477 -3.98E-05
    90 OT DIIS     0.80E-01   10.9     0.00001328     -6792.0862160938  1.55E-06
    91 OT DIIS     0.80E-01   10.8     0.00001293     -6792.0862568420 -4.07E-05
    92 OT DIIS     0.80E-01   11.4     0.00001342     -6792.0862844439 -2.76E-05
    93 OT DIIS     0.80E-01   11.0     0.00001376     -6792.0863047386 -2.03E-05
    94 OT DIIS     0.80E-01   11.0     0.00001351     -6792.0863279572 -2.32E-05
    95 OT DIIS     0.80E-01   11.0     0.00001329     -6792.0863390538 -1.11E-05
    96 OT DIIS     0.80E-01   11.2     0.00001286     -6792.0863634421 -2.44E-05
    97 OT DIIS     0.80E-01   10.9     0.00001249     -6792.0863978776 -3.44E-05
    98 OT DIIS     0.80E-01   11.1     0.00001231     -6792.0863935733  4.30E-06
    99 OT DIIS     0.80E-01   11.0     0.00001166     -6792.0864253807 -3.18E-05
   100 OT DIIS     0.80E-01   11.2     0.00001189     -6792.0864502549 -2.49E-05

  Leaving inner SCF loop after reaching   100 steps.


  Electronic density on regular grids:      -2432.0000000002       -0.0000000002
  Core density on regular grids:             2431.9999999988       -0.0000000012
  Total charge density on r-space grids:       -0.0000000013
  Total charge density g-space grids:          -0.0000000013

  Overlap energy of the core charge distribution:               6.04986261595009
  Self energy of the core charge distribution:             -16017.19408509233290
  Core Hamiltonian energy:                                   4485.87343577485262
  Hartree energy:                                            6088.10464484868498
  Exchange-correlation energy:                              -1353.05303698915009
  Dispersion energy:                                           -1.86727141291994

  Total energy:                                             -6792.08645025491569

  outer SCF iter =    1 RMS gradient =   0.12E-04 energy =      -6792.0864502549

  ----------------------------------- OT ---------------------------------------
  Minimizer      : DIIS                : direct inversion
                                         in the iterative subspace
                                         using   7 DIIS vectors
                                         safer DIIS on
  Preconditioner : FULL_SINGLE_INVERSE : inversion of 
                                         H + eS - 2*(Sc)(c^T*H*c+const)(Sc)^T
  Precond_solver : DEFAULT
  stepsize       :    0.08000000                  energy_gap     :    0.08000000
  eps_taylor     :   0.10000E-15                  max_taylor     :             4
  ----------------------------------- OT ---------------------------------------

  Step     Update method      Time    Convergence         Total energy    Change
  ------------------------------------------------------------------------------
     1 OT DIIS     0.80E-01   32.1     0.00001289     -6792.0864705405 -2.03E-05
     2 OT DIIS     0.80E-01   10.2     0.00005309     -6792.0864470017  2.35E-05
     3 OT DIIS     0.80E-01   10.1     0.00001152     -6792.0865319976 -8.50E-05
     4 OT DIIS     0.80E-01   10.2     0.00001073     -6792.0865451911 -1.32E-05
     5 OT DIIS     0.80E-01   10.3     0.00001748     -6792.0866736077 -1.28E-04
     6 OT DIIS     0.80E-01   10.4     0.00001534     -6792.0871523848 -4.79E-04
     7 OT DIIS     0.80E-01   10.4     0.00000893     -6792.0872905853 -1.38E-04

  *** SCF run converged in     7 steps ***


  Electronic density on regular grids:      -2432.0000000036       -0.0000000036
  Core density on regular grids:             2431.9999999988       -0.0000000012
  Total charge density on r-space grids:       -0.0000000048
  Total charge density g-space grids:          -0.0000000048

  Overlap energy of the core charge distribution:               6.04986261595009
  Self energy of the core charge distribution:             -16017.19408509233290
  Core Hamiltonian energy:                                   4485.87924349540208
  Hartree energy:                                            6088.09806876404218
  Exchange-correlation energy:                              -1353.05310895541879
  Dispersion energy:                                           -1.86727141291994

  Total energy:                                             -6792.08729058527661

  outer SCF iter =    2 RMS gradient =   0.89E-05 energy =      -6792.0872905853
  outer SCF loop converged in   2 iterations or  107 steps


 ENERGY| Total FORCE_EVAL ( QS ) energy [hartree]          -6792.087316446457407

 MD| ***************************************************************************
 MD| Step number                                                               2
 MD| Time [fs]                                                          0.500000
 MD| Conserved quantity [hartree]                            -0.673163768180E+04
 MD| ---------------------------------------------------------------------------
 MD|                                          Instantaneous             Averages
 MD| CPU time per MD step [s]                   1227.421829          2571.978226
 MD| Energy drift per atom [K]          -0.425790919173E+04  -0.212895459587E+04
 MD| Potential energy [hartree]         -0.679208731645E+04  -0.677394592903E+04
 MD| Kinetic energy [hartree]            0.492784028151E+02   0.359663690264E+02
 MD| Temperature [K]                           26875.423658         19615.315226
 MD| Pressure [bar]                      5.474333969951E+05   5.501591817054E+05
 MD| ***************************************************************************
 MD| Estimated peak process memory after this step [MiB]                   18237

 Extrapolation method: ASPC

 Number of electrons:                                                       2432
 Number of occupied orbitals:                                               1216
 Number of molecular orbitals:                                              1216

 Number of orbital functions:                                               4983
 Number of independent orbital functions:                                   4983


 SCF WAVEFUNCTION OPTIMIZATION

  ----------------------------------- OT ---------------------------------------
  Minimizer      : DIIS                : direct inversion
                                         in the iterative subspace
                                         using   7 DIIS vectors
                                         safer DIIS on
  Preconditioner : FULL_SINGLE_INVERSE : inversion of 
                                         H + eS - 2*(Sc)(c^T*H*c+const)(Sc)^T
  Precond_solver : DEFAULT
  stepsize       :    0.08000000                  energy_gap     :    0.08000000
  eps_taylor     :   0.10000E-15                  max_taylor     :             4
  ----------------------------------- OT ---------------------------------------

  Step     Update method      Time    Convergence         Total energy    Change
  ------------------------------------------------------------------------------
     1 OT DIIS     0.80E-01   18.8     0.00139032     -6818.7053403586 -6.82E+03
     2 OT DIIS     0.80E-01   11.1     0.00187281     -6818.9701092400 -2.65E-01
     3 OT DIIS     0.80E-01   11.1     0.00174834     -6819.1154458447 -1.45E-01
     4 OT DIIS     0.80E-01   11.2     0.00100347     -6819.2288268578 -1.13E-01
     5 OT DIIS     0.80E-01   10.9     0.00065790     -6819.3110729541 -8.22E-02
     6 OT DIIS     0.80E-01   11.1     0.00078720     -6819.3356413066 -2.46E-02
     7 OT DIIS     0.80E-01   10.8     0.00052537     -6819.3608303335 -2.52E-02
     8 OT DIIS     0.80E-01   10.9     0.00036928     -6819.3726542237 -1.18E-02
     9 OT DIIS     0.80E-01   10.9     0.00031118     -6819.3781962828 -5.54E-03
    10 OT DIIS     0.80E-01   10.6     0.00025988     -6819.3801821760 -1.99E-03
    11 OT DIIS     0.80E-01   10.8     0.00019560     -6819.3827266246 -2.54E-03
    12 OT DIIS     0.80E-01   10.8     0.00015343     -6819.3848317849 -2.11E-03
    13 OT DIIS     0.80E-01   11.1     0.00011425     -6819.3855253125 -6.94E-04
    14 OT DIIS     0.80E-01   11.1     0.00012537     -6819.3863513907 -8.26E-04
    15 OT DIIS     0.80E-01   10.8     0.00010287     -6819.3869501116 -5.99E-04
    16 OT DIIS     0.80E-01   10.6     0.00008788     -6819.3874801419 -5.30E-04
    17 OT DIIS     0.80E-01   11.0     0.00007563     -6819.3880553410 -5.75E-04
    18 OT DIIS     0.80E-01   10.9     0.00008366     -6819.3883945020 -3.39E-04
    19 OT DIIS     0.80E-01   10.9     0.00007203     -6819.3887281616 -3.34E-04
    20 OT DIIS     0.80E-01   10.9     0.00006405     -6819.3891527546 -4.25E-04
    21 OT DIIS     0.80E-01   11.2     0.00005947     -6819.3894371402 -2.84E-04
    22 OT DIIS     0.80E-01   11.2     0.00006281     -6819.3897385140 -3.01E-04
    23 OT DIIS     0.80E-01   11.1     0.00005922     -6819.3899117292 -1.73E-04
    24 OT DIIS     0.80E-01   11.0     0.00005380     -6819.3901039072 -1.92E-04
    25 OT DIIS     0.80E-01   10.9     0.00004457     -6819.3903133600 -2.09E-04
    26 OT DIIS     0.80E-01   11.0     0.00004681     -6819.3905385695 -2.25E-04
    27 OT DIIS     0.80E-01   11.0     0.00004406     -6819.3906351687 -9.66E-05
    28 OT DIIS     0.80E-01   10.9     0.00003855     -6819.3907894641 -1.54E-04
    29 OT DIIS     0.80E-01   11.2     0.00003594     -6819.3909944158 -2.05E-04
    30 OT DIIS     0.80E-01   11.2     0.00003873     -6819.3911458685 -1.51E-04
    31 OT DIIS     0.80E-01   11.1     0.00003882     -6819.3912684442 -1.23E-04
    32 OT DIIS     0.80E-01   11.3     0.00003831     -6819.3913815105 -1.13E-04
    33 OT DIIS     0.80E-01   11.1     0.00003338     -6819.3914916414 -1.10E-04
    34 OT DIIS     0.80E-01   11.0     0.00003415     -6819.3916748075 -1.83E-04
    35 OT DIIS     0.80E-01   10.8     0.00003462     -6819.3917270285 -5.22E-05
    36 OT DIIS     0.80E-01   10.9     0.00003067     -6819.3917803927 -5.34E-05
    37 OT DIIS     0.80E-01   10.8     0.00002697     -6819.3919365679 -1.56E-04
    38 OT DIIS     0.80E-01   11.0     0.00002846     -6819.3920222756 -8.57E-05
    39 OT DIIS     0.80E-01   10.9     0.00002821     -6819.3921140345 -9.18E-05
    40 OT DIIS     0.80E-01   10.9     0.00002827     -6819.3921956934 -8.17E-05
    41 OT DIIS     0.80E-01   11.1     0.00002604     -6819.3922666732 -7.10E-05
    42 OT DIIS     0.80E-01   11.1     0.00002606     -6819.3924097596 -1.43E-04
    43 OT DIIS     0.80E-01   10.9     0.00002793     -6819.3924720367 -6.23E-05
    44 OT DIIS     0.80E-01   10.9     0.00002664     -6819.3924906306 -1.86E-05
    45 OT DIIS     0.80E-01   11.2     0.00002307     -6819.3926193425 -1.29E-04
    46 OT DIIS     0.80E-01   10.7     0.00002428     -6819.3926749852 -5.56E-05
    47 OT DIIS     0.80E-01   11.0     0.00002366     -6819.3927466772 -7.17E-05
    48 OT DIIS     0.80E-01   11.2     0.00002331     -6819.3928061850 -5.95E-05
    49 OT DIIS     0.80E-01   11.1     0.00002173     -6819.3928500423 -4.39E-05
    50 OT DIIS     0.80E-01   11.1     0.00002102     -6819.3929518980 -1.02E-04
    51 OT DIIS     0.80E-01   10.8     0.00002239     -6819.3930196895 -6.78E-05
    52 OT DIIS     0.80E-01   11.2     0.00002261     -6819.3930383037 -1.86E-05
    53 OT DIIS     0.80E-01   11.3     0.00002005     -6819.3931392390 -1.01E-04
    54 OT DIIS     0.80E-01   11.0     0.00002134     -6819.3931892283 -5.00E-05
    55 OT DIIS     0.80E-01   10.9     0.00002114     -6819.3932520368 -6.28E-05
    56 OT DIIS     0.80E-01   10.9     0.00002095     -6819.3933027079 -5.07E-05
    57 OT DIIS     0.80E-01   11.0     0.00001982     -6819.3933309553 -2.82E-05
    58 OT DIIS     0.80E-01   11.2     0.00001865     -6819.3934013473 -7.04E-05
    59 OT DIIS     0.80E-01   11.0     0.00001913     -6819.3934630868 -6.17E-05
    60 OT DIIS     0.80E-01   11.1     0.00001951     -6819.3934843096 -2.12E-05
    61 OT DIIS     0.80E-01   10.8     0.00001764     -6819.3935546207 -7.03E-05
    62 OT DIIS     0.80E-01   11.2     0.00001849     -6819.3936033537 -4.87E-05
    63 OT DIIS     0.80E-01   10.9     0.00001865     -6819.3936607236 -5.74E-05
    64 OT DIIS     0.80E-01   11.1     0.00001887     -6819.3937116895 -5.10E-05
    65 OT DIIS     0.80E-01   11.1     0.00001848     -6819.3937392313 -2.75E-05
    66 OT DIIS     0.80E-01   11.1     0.00001745     -6819.3937868056 -4.76E-05
    67 OT DIIS     0.80E-01   11.2     0.00001757     -6819.3938455290 -5.87E-05
    68 OT DIIS     0.80E-01   11.1     0.00001796     -6819.3938696169 -2.41E-05
    69 OT DIIS     0.80E-01   11.0     0.00001626     -6819.3939139157 -4.43E-05
    70 OT DIIS     0.80E-01   11.1     0.00001655     -6819.3939562164 -4.23E-05
    71 OT DIIS     0.80E-01   10.7     0.00001654     -6819.3940038795 -4.77E-05
    72 OT DIIS     0.80E-01   10.8     0.00001679     -6819.3940520521 -4.82E-05
    73 OT DIIS     0.80E-01   11.1     0.00001681     -6819.3940852017 -3.31E-05
    74 OT DIIS     0.80E-01   11.3     0.00001624     -6819.3941175414 -3.23E-05
    75 OT DIIS     0.80E-01   11.1     0.00001631     -6819.3941755862 -5.80E-05
    76 OT DIIS     0.80E-01   10.9     0.00001696     -6819.3942109213 -3.53E-05
    77 OT DIIS     0.80E-01   11.0     0.00001557     -6819.3942353249 -2.44E-05
    78 OT DIIS     0.80E-01   10.8     0.00001561     -6819.3942724505 -3.71E-05
    79 OT DIIS     0.80E-01   10.9     0.00001538     -6819.3943103854 -3.79E-05
    80 OT DIIS     0.80E-01   11.1     0.00001540     -6819.3943523213 -4.19E-05
    81 OT DIIS     0.80E-01   10.9     0.00001536     -6819.3943864195 -3.41E-05
    82 OT DIIS     0.80E-01   10.9     0.00001500     -6819.3944071431 -2.07E-05
    83 OT DIIS     0.80E-01   11.1     0.00001492     -6819.3944598216 -5.27E-05
    84 OT DIIS     0.80E-01   11.1     0.00001563     -6819.3945067297 -4.69E-05
    85 OT DIIS     0.80E-01   10.9     0.00001486     -6819.3945209910 -1.43E-05
    86 OT DIIS     0.80E-01   10.9     0.00001496     -6819.3945583482 -3.74E-05
    87 OT DIIS     0.80E-01   11.1     0.00001480     -6819.3945903832 -3.20E-05
    88 OT DIIS     0.80E-01   10.9     0.00001470     -6819.3946276466 -3.73E-05
    89 OT DIIS     0.80E-01   10.9     0.00001455     -6819.3946617107 -3.41E-05
    90 OT DIIS     0.80E-01   11.2     0.00001419     -6819.3946708866 -9.18E-06
    91 OT DIIS     0.80E-01   11.0     0.00001382     -6819.3947144625 -4.36E-05
    92 OT DIIS     0.80E-01   11.0     0.00001431     -6819.3947644647 -5.00E-05
    93 OT DIIS     0.80E-01   11.0     0.00001393     -6819.3947747443 -1.03E-05
    94 OT DIIS     0.80E-01   11.3     0.00001405     -6819.3948121173 -3.74E-05
    95 OT DIIS     0.80E-01   10.9     0.00001408     -6819.3948425497 -3.04E-05
    96 OT DIIS     0.80E-01   10.7     0.00001410     -6819.3948784886 -3.59E-05
    97 OT DIIS     0.80E-01   11.1     0.00001406     -6819.3949158638 -3.74E-05
    98 OT DIIS     0.80E-01   11.1     0.00001384     -6819.3949158887 -2.49E-08
    99 OT DIIS     0.80E-01   11.2     0.00001324     -6819.3949506328 -3.47E-05
   100 OT DIIS     0.80E-01   10.8     0.00001347     -6819.3950006805 -5.00E-05

  Leaving inner SCF loop after reaching   100 steps.


  Electronic density on regular grids:      -2432.0000000017       -0.0000000017
  Core density on regular grids:             2431.9999999988       -0.0000000012
  Total charge density on r-space grids:       -0.0000000029
  Total charge density g-space grids:          -0.0000000029

  Overlap energy of the core charge distribution:               1.59355700007186
  Self energy of the core charge distribution:             -16017.19408509233290
  Core Hamiltonian energy:                                   4471.92106106552546
  Hartree energy:                                            6077.85699444301554
  Exchange-correlation energy:                              -1351.71208465092786
  Dispersion energy:                                           -1.86044344588102

  Total energy:                                             -6819.39500068053076

  outer SCF iter =    1 RMS gradient =   0.13E-04 energy =      -6819.3950006805

  ----------------------------------- OT ---------------------------------------
  Minimizer      : DIIS                : direct inversion
                                         in the iterative subspace
                                         using   7 DIIS vectors
                                         safer DIIS on
  Preconditioner : FULL_SINGLE_INVERSE : inversion of 
                                         H + eS - 2*(Sc)(c^T*H*c+const)(Sc)^T
  Precond_solver : DEFAULT
  stepsize       :    0.08000000                  energy_gap     :    0.08000000
  eps_taylor     :   0.10000E-15                  max_taylor     :             4
  ----------------------------------- OT ---------------------------------------

  Step     Update method      Time    Convergence         Total energy    Change
  ------------------------------------------------------------------------------
     1 OT DIIS     0.80E-01   31.0     0.00001483     -6819.3950068976 -6.22E-06
     2 OT DIIS     0.80E-01   10.3     0.00004441     -6819.3950406144 -3.37E-05
     3 OT DIIS     0.80E-01   10.4     0.00001401     -6819.3951051606 -6.45E-05
     4 OT DIIS     0.80E-01   10.4     0.00001361     -6819.3951306577 -2.55E-05
     5 OT DIIS     0.80E-01   10.4     0.00002005     -6819.3954073559 -2.77E-04
     6 OT DIIS     0.80E-01   10.3     0.00001840     -6819.3961033938 -6.96E-04
     7 OT DIIS     0.80E-01   10.3     0.00001159     -6819.3962318922 -1.28E-04
     8 OT DIIS     0.80E-01   10.2     0.00001243     -6819.3963019410 -7.00E-05
     9 OT DIIS     0.80E-01   10.1     0.00001446     -6819.3964794608 -1.78E-04
    10 OT DIIS     0.80E-01   10.4     0.00001237     -6819.3966513435 -1.72E-04
[...]
    23 OT DIIS     0.80E-01   11.2     0.00002120     -6905.4744994059 -7.75E-04
    24 OT DIIS     0.80E-01   11.2     0.00002055     -6905.4751609788 -6.62E-04
    25 OT DIIS     0.80E-01   11.0     0.00001947     -6905.4758215238 -6.61E-04
    26 OT DIIS     0.80E-01   11.3     0.00001875     -6905.4764515552 -6.30E-04
    27 OT DIIS     0.80E-01   11.2     0.00001811     -6905.4769796074 -5.28E-04
    28 OT DIIS     0.80E-01   11.3     0.00001750     -6905.4775487522 -5.69E-04
    29 OT DIIS     0.80E-01   11.0     0.00001686     -6905.4781910706 -6.42E-04
    30 OT DIIS     0.80E-01   11.2     0.00001624     -6905.4786507349 -4.60E-04
    31 OT DIIS     0.80E-01   11.2     0.00001568     -6905.4791076265 -4.57E-04
    32 OT DIIS     0.80E-01   11.5     0.00001529     -6905.4795463943 -4.39E-04
    33 OT DIIS     0.80E-01   11.3     0.00001478     -6905.4800394413 -4.93E-04
    34 OT DIIS     0.80E-01   11.2     0.00001431     -6905.4805030473 -4.64E-04
    35 OT DIIS     0.80E-01   11.5     0.00001400     -6905.4808517740 -3.49E-04
    36 OT DIIS     0.80E-01   11.2     0.00001363     -6905.4812144808 -3.63E-04
    37 OT DIIS     0.80E-01   11.2     0.00001329     -6905.4815843212 -3.70E-04
    38 OT DIIS     0.80E-01   11.4     0.00001293     -6905.4819251582 -3.41E-04
    39 OT DIIS     0.80E-01   11.2     0.00001268     -6905.4822349491 -3.10E-04
    40 OT DIIS     0.80E-01   11.2     0.00001243     -6905.4825153913 -2.80E-04
    41 OT DIIS     0.80E-01   11.4     0.00001216     -6905.4827834748 -2.68E-04
    42 OT DIIS     0.80E-01   11.3     0.00001193     -6905.4830796849 -2.96E-04
    43 OT DIIS     0.80E-01   11.2     0.00001175     -6905.4832805161 -2.01E-04
    44 OT DIIS     0.80E-01   11.4     0.00001154     -6905.4835640583 -2.84E-04
    45 OT DIIS     0.80E-01   11.2     0.00001138     -6905.4837729051 -2.09E-04
    46 OT DIIS     0.80E-01   11.3     0.00001120     -6905.4839998290 -2.27E-04
    47 OT DIIS     0.80E-01   11.2     0.00001108     -6905.4841909887 -1.91E-04
    48 OT DIIS     0.80E-01   11.4     0.00001091     -6905.4844481225 -2.57E-04
    49 OT DIIS     0.80E-01   11.2     0.00001073     -6905.4846825635 -2.34E-04
    50 OT DIIS     0.80E-01   11.2     0.00001059     -6905.4849152552 -2.33E-04
    51 OT DIIS     0.80E-01   11.0     0.00001045     -6905.4850834865 -1.68E-04
    52 OT DIIS     0.80E-01   11.2     0.00001030     -6905.4853548994 -2.71E-04
    53 OT DIIS     0.80E-01   11.2     0.00001014     -6905.4855877282 -2.33E-04
    54 OT DIIS     0.80E-01   11.4     0.00001001     -6905.4858260534 -2.38E-04
    55 OT DIIS     0.80E-01   11.2     0.00000988     -6905.4860148848 -1.89E-04

  *** SCF run converged in    55 steps ***


  Electronic density on regular grids:      -2431.9999999784        0.0000000216
  Core density on regular grids:             2431.9999999988       -0.0000000012
  Total charge density on r-space grids:        0.0000000205
  Total charge density g-space grids:           0.0000000205

  Overlap energy of the core charge distribution:               0.00001696637807
  Self energy of the core charge distribution:             -16017.19408509233290
  Core Hamiltonian energy:                                   4305.48503701195295
  Hartree energy:                                            6133.00507860933703
  Exchange-correlation energy:                              -1325.04137111206182
  Dispersion energy:                                           -1.74069126805807

  Total energy:                                             -6905.48601488478471

  outer SCF iter =    1 RMS gradient =   0.99E-05 energy =      -6905.4860148848
  outer SCF loop converged in   1 iterations or   55 steps


 ENERGY| Total FORCE_EVAL ( QS ) energy [hartree]          -6905.486220023683927

 MD| ***************************************************************************
 MD| Step number                                                              80
 MD| Time [fs]                                                         20.000000
 MD| Conserved quantity [hartree]                            -0.672996207555E+04
 MD| ---------------------------------------------------------------------------
 MD|                                          Instantaneous             Averages
 MD| CPU time per MD step [s]                    660.318676           815.354650
 MD| Energy drift per atom [K]          -0.289068961656E+04  -0.291336933738E+04
 MD| Potential energy [hartree]         -0.690548622002E+04  -0.688967997408E+04
 MD| Kinetic energy [hartree]            0.226798290877E+01   0.105222762801E+02
 MD| Temperature [K]                            1236.911061          5738.632275
 MD| Pressure [bar]                      5.923983178667E+04   1.372289560387E+05
 MD| ***************************************************************************
 MD| Estimated peak process memory after this step [MiB]                   18830

 Extrapolation method: ASPC

 Number of electrons:                                                       2432
 Number of occupied orbitals:                                               1216
 Number of molecular orbitals:                                              1216

 Number of orbital functions:                                               4983
 Number of independent orbital functions:                                   4983


 SCF WAVEFUNCTION OPTIMIZATION

  ----------------------------------- OT ---------------------------------------
  Minimizer      : DIIS                : direct inversion
                                         in the iterative subspace
                                         using   7 DIIS vectors
                                         safer DIIS on
  Preconditioner : FULL_SINGLE_INVERSE : inversion of 
                                         H + eS - 2*(Sc)(c^T*H*c+const)(Sc)^T
  Precond_solver : DEFAULT
  stepsize       :    0.08000000                  energy_gap     :    0.08000000
  eps_taylor     :   0.10000E-15                  max_taylor     :             4
  ----------------------------------- OT ---------------------------------------

  Step     Update method      Time    Convergence         Total energy    Change
  ------------------------------------------------------------------------------
     1 OT DIIS     0.80E-01   17.7     0.00292577     -6904.3652890041 -6.90E+03
     2 OT DIIS     0.80E-01   11.2     0.00243608     -6904.1408286662  2.24E-01
     3 OT DIIS     0.80E-01   11.4     0.00099983     -6905.3462947236 -1.21E+00
     4 OT DIIS     0.80E-01   11.0     0.00039392     -6905.4778329732 -1.32E-01
     5 OT DIIS     0.80E-01   11.1     0.00014086     -6905.5210687024 -4.32E-02
     6 OT DIIS     0.80E-01   11.5     0.00011221     -6905.5332778166 -1.22E-02
     7 OT DIIS     0.80E-01   11.0     0.00008929     -6905.5498926035 -1.66E-02
     8 OT DIIS     0.80E-01   11.4     0.00007518     -6905.5541011390 -4.21E-03
     9 OT DIIS     0.80E-01   11.3     0.00006000     -6905.5631111850 -9.01E-03
    10 OT DIIS     0.80E-01   11.3     0.00005523     -6905.5670948261 -3.98E-03
    11 OT DIIS     0.80E-01   11.3     0.00004707     -6905.5722208767 -5.13E-03
    12 OT DIIS     0.80E-01   11.0     0.00004007     -6905.5769524659 -4.73E-03
    13 OT DIIS     0.80E-01   11.3     0.00003723     -6905.5794555491 -2.50E-03
    14 OT DIIS     0.80E-01   11.2     0.00003394     -6905.5812883906 -1.83E-03
    15 OT DIIS     0.80E-01   11.4     0.00002926     -6905.5843167064 -3.03E-03
    16 OT DIIS     0.80E-01   11.1     0.00002805     -6905.5855129650 -1.20E-03
    17 OT DIIS     0.80E-01   11.1     0.00002515     -6905.5866408609 -1.13E-03
    18 OT DIIS     0.80E-01   11.2     0.00002370     -6905.5877511898 -1.11E-03
    19 OT DIIS     0.80E-01   11.1     0.00002236     -6905.5885624882 -8.11E-04
    20 OT DIIS     0.80E-01   11.5     0.00002117     -6905.5892891530 -7.27E-04
    21 OT DIIS     0.80E-01   11.1     0.00002053     -6905.5899397835 -6.51E-04
    22 OT DIIS     0.80E-01   11.3     0.00001979     -6905.5903880413 -4.48E-04
    23 OT DIIS     0.80E-01   11.3     0.00001896     -6905.5910389513 -6.51E-04
    24 OT DIIS     0.80E-01   11.1     0.00001862     -6905.5914762331 -4.37E-04
    25 OT DIIS     0.80E-01   11.3     0.00001815     -6905.5918464009 -3.70E-04
    26 OT DIIS     0.80E-01   11.2     0.00001756     -6905.5923646282 -5.18E-04
    27 OT DIIS     0.80E-01   11.0     0.00001716     -6905.5927868638 -4.22E-04
    28 OT DIIS     0.80E-01   11.1     0.00001679     -6905.5931751513 -3.88E-04
    29 OT DIIS     0.80E-01   11.3     0.00001644     -6905.5936847851 -5.10E-04
    30 OT DIIS     0.80E-01   11.3     0.00001612     -6905.5940580933 -3.73E-04
    31 OT DIIS     0.80E-01   10.9     0.00001559     -6905.5945759578 -5.18E-04
    32 OT DIIS     0.80E-01   11.1     0.00001532     -6905.5950182444 -4.42E-04
    33 OT DIIS     0.80E-01   11.3     0.00001503     -6905.5953782678 -3.60E-04
    34 OT DIIS     0.80E-01   11.6     0.00001454     -6905.5958732307 -4.95E-04
    35 OT DIIS     0.80E-01   10.8     0.00001423     -6905.5962651521 -3.92E-04
    36 OT DIIS     0.80E-01   11.2     0.00001392     -6905.5965882422 -3.23E-04
    37 OT DIIS     0.80E-01   11.2     0.00001365     -6905.5969439439 -3.56E-04
    38 OT DIIS     0.80E-01   11.1     0.00001345     -6905.5972058824 -2.62E-04
    39 OT DIIS     0.80E-01   11.2     0.00001313     -6905.5975124831 -3.07E-04
    40 OT DIIS     0.80E-01   11.0     0.00001297     -6905.5977679069 -2.55E-04
    41 OT DIIS     0.80E-01   11.1     0.00001281     -6905.5979566662 -1.89E-04
    42 OT DIIS     0.80E-01   11.1     0.00001257     -6905.5981920503 -2.35E-04
    43 OT DIIS     0.80E-01   12.9     0.00001242     -6905.5983953772 -2.03E-04
    44 OT DIIS     0.80E-01   11.1     0.00001229     -6905.5985821309 -1.87E-04
    45 OT DIIS     0.80E-01   11.0     0.00001215     -6905.5987876231 -2.05E-04
    46 OT DIIS     0.80E-01   11.2     0.00001204     -6905.5989563975 -1.69E-04
    47 OT DIIS     0.80E-01   11.3     0.00001190     -6905.5991512789 -1.95E-04
    48 OT DIIS     0.80E-01   11.2     0.00001181     -6905.5993538591 -2.03E-04
    49 OT DIIS     0.80E-01   11.1     0.00001171     -6905.5995387854 -1.85E-04
    50 OT DIIS     0.80E-01   11.2     0.00001156     -6905.5997620517 -2.23E-04
    51 OT DIIS     0.80E-01   11.1     0.00001144     -6905.5999632448 -2.01E-04
    52 OT DIIS     0.80E-01   11.4     0.00001133     -6905.6001889204 -2.26E-04
    53 OT DIIS     0.80E-01   11.0     0.00001121     -6905.6004349505 -2.46E-04
    54 OT DIIS     0.80E-01   11.1     0.00001109     -6905.6006468143 -2.12E-04
    55 OT DIIS     0.80E-01   11.1     0.00001096     -6905.6008802666 -2.33E-04
    56 OT DIIS     0.80E-01   11.3     0.00001086     -6905.6011011353 -2.21E-04
    57 OT DIIS     0.80E-01   11.2     0.00001075     -6905.6013111058 -2.10E-04
    58 OT DIIS     0.80E-01   11.3     0.00001061     -6905.6015384033 -2.27E-04
    59 OT DIIS     0.80E-01   11.2     0.00001049     -6905.6017191296 -1.81E-04
    60 OT DIIS     0.80E-01   11.2     0.00001039     -6905.6019118108 -1.93E-04
    61 OT DIIS     0.80E-01   10.9     0.00001030     -6905.6020918628 -1.80E-04
    62 OT DIIS     0.80E-01   11.0     0.00001020     -6905.6022395525 -1.48E-04
    63 OT DIIS     0.80E-01   11.1     0.00001011     -6905.6023973883 -1.58E-04
    64 OT DIIS     0.80E-01   10.9     0.00001004     -6905.6025368200 -1.39E-04
    65 OT DIIS     0.80E-01   11.1     0.00000997     -6905.6026671248 -1.30E-04

  *** SCF run converged in    65 steps ***


  Electronic density on regular grids:      -2431.9999999776        0.0000000224
  Core density on regular grids:             2431.9999999988       -0.0000000012
  Total charge density on r-space grids:        0.0000000213
  Total charge density g-space grids:           0.0000000213

  Overlap energy of the core charge distribution:               0.00001675918928
  Self energy of the core charge distribution:             -16017.19408509233290
  Core Hamiltonian energy:                                   4304.92681573039863
  Hartree energy:                                            6133.33143012704022
  Exchange-correlation energy:                              -1324.92697607777859
  Dispersion energy:                                           -1.73986857131578

  Total energy:                                             -6905.60266712480006

  outer SCF iter =    1 RMS gradient =   0.10E-04 energy =      -6905.6026671248
  outer SCF loop converged in   1 iterations or   65 steps


 ENERGY| Total FORCE_EVAL ( QS ) energy [hartree]          -6905.602807728524567

 MD| ***************************************************************************
 MD| Step number                                                              81
 MD| Time [fs]                                                         20.250000
 MD| Conserved quantity [hartree]                            -0.672996032503E+04
 MD| ---------------------------------------------------------------------------
 MD|                                          Instantaneous             Averages
 MD| CPU time per MD step [s]                    769.379876           814.787060
 MD| Energy drift per atom [K]          -0.288926127000E+04  -0.291307170692E+04
 MD| Potential energy [hartree]         -0.690560280773E+04  -0.688987655228E+04
 MD| Kinetic energy [hartree]            0.221157233301E+01   0.104196749968E+02
 MD| Temperature [K]                            1206.145898          5682.675654
 MD| Pressure [bar]                      5.856333672054E+04   1.362577755532E+05
 MD| ***************************************************************************
 MD| Estimated peak process memory after this step [MiB]                   18830

 Extrapolation method: ASPC

 Number of electrons:                                                       2432
 Number of occupied orbitals:                                               1216
 Number of molecular orbitals:                                              1216

 Number of orbital functions:                                               4983
 Number of independent orbital functions:                                   4983


 SCF WAVEFUNCTION OPTIMIZATION

  ----------------------------------- OT ---------------------------------------
  Minimizer      : DIIS                : direct inversion
                                         in the iterative subspace
                                         using   7 DIIS vectors
                                         safer DIIS on
  Preconditioner : FULL_SINGLE_INVERSE : inversion of 
                                         H + eS - 2*(Sc)(c^T*H*c+const)(Sc)^T
  Precond_solver : DEFAULT
  stepsize       :    0.08000000                  energy_gap     :    0.08000000
  eps_taylor     :   0.10000E-15                  max_taylor     :             4
  ----------------------------------- OT ---------------------------------------

  Step     Update method      Time    Convergence         Total energy    Change
  ------------------------------------------------------------------------------
     1 OT DIIS     0.80E-01   18.2     0.00257329     -6904.8010283103 -6.90E+03
     2 OT DIIS     0.80E-01   11.2     0.00250163     -6904.3284353383  4.73E-01
     3 OT DIIS     0.80E-01   11.1     0.00100004     -6905.5077021968 -1.18E+00
     4 OT DIIS     0.80E-01   11.4     0.00038592     -6905.6161578992 -1.08E-01
     5 OT DIIS     0.80E-01   12.0     0.00013385     -6905.6449995025 -2.88E-02
     6 OT DIIS     0.80E-01   11.6     0.00010747     -6905.6568406131 -1.18E-02
     7 OT DIIS     0.80E-01   11.6     0.00010596     -6905.6657065605 -8.87E-03
     8 OT DIIS     0.80E-01   11.5     0.00007346     -6905.6711092260 -5.40E-03
     9 OT DIIS     0.80E-01   11.7     0.00005898     -6905.6770445924 -5.94E-03
    10 OT DIIS     0.80E-01   11.4     0.00005606     -6905.6807280939 -3.68E-03
    11 OT DIIS     0.80E-01   11.4     0.00004696     -6905.6841063681 -3.38E-03
    12 OT DIIS     0.80E-01   11.4     0.00004179     -6905.6875446819 -3.44E-03
    13 OT DIIS     0.80E-01   11.2     0.00003876     -6905.6899388759 -2.39E-03
    14 OT DIIS     0.80E-01   11.1     0.00003458     -6905.6923281693 -2.39E-03
    15 OT DIIS     0.80E-01   11.0     0.00003111     -6905.6939430034 -1.61E-03
    16 OT DIIS     0.80E-01   11.4     0.00002902     -6905.6953817193 -1.44E-03
    17 OT DIIS     0.80E-01   11.5     0.00002754     -6905.6966435095 -1.26E-03
    18 OT DIIS     0.80E-01   11.6     0.00002616     -6905.6978166656 -1.17E-03
    19 OT DIIS     0.80E-01   10.8     0.00002393     -6905.6988816291 -1.06E-03
    20 OT DIIS     0.80E-01   11.2     0.00002268     -6905.6998324783 -9.51E-04
    21 OT DIIS     0.80E-01   11.4     0.00002185     -6905.7006420869 -8.10E-04
    22 OT DIIS     0.80E-01   11.3     0.00002108     -6905.7014331365 -7.91E-04
    23 OT DIIS     0.80E-01   11.1     0.00002019     -6905.7020747779 -6.42E-04
    24 OT DIIS     0.80E-01   11.2     0.00001957     -6905.7026663631 -5.92E-04
    25 OT DIIS     0.80E-01   11.6     0.00001902     -6905.7032027615 -5.36E-04
    26 OT DIIS     0.80E-01   11.3     0.00001856     -6905.7037330273 -5.30E-04
    27 OT DIIS     0.80E-01   11.0     0.00001805     -6905.7042643596 -5.31E-04
    28 OT DIIS     0.80E-01   11.3     0.00001753     -6905.7048533034 -5.89E-04
    29 OT DIIS     0.80E-01   11.0     0.00001711     -6905.7053942410 -5.41E-04
    30 OT DIIS     0.80E-01   11.3     0.00001678     -6905.7058593763 -4.65E-04
    31 OT DIIS     0.80E-01   11.0     0.00001640     -6905.7063118872 -4.53E-04
    32 OT DIIS     0.80E-01   11.4     0.00001610     -6905.7068405513 -5.29E-04
    33 OT DIIS     0.80E-01   11.1     0.00001575     -6905.7072849427 -4.44E-04
    34 OT DIIS     0.80E-01   11.3     0.00001542     -6905.7077253007 -4.40E-04
    35 OT DIIS     0.80E-01   11.5     0.00001514     -6905.7081148493 -3.90E-04
    36 OT DIIS     0.80E-01   11.4     0.00001482     -6905.7085588958 -4.44E-04
    37 OT DIIS     0.80E-01   11.4     0.00001456     -6905.7090001772 -4.41E-04
    38 OT DIIS     0.80E-01   11.4     0.00001432     -6905.7093752685 -3.75E-04
    39 OT DIIS     0.80E-01   11.4     0.00001405     -6905.7097023240 -3.27E-04
    40 OT DIIS     0.80E-01   11.3     0.00001386     -6905.7100533972 -3.51E-04
    41 OT DIIS     0.80E-01   11.4     0.00001367     -6905.7103539496 -3.01E-04
    42 OT DIIS     0.80E-01   11.0     0.00001347     -6905.7106569969 -3.03E-04
    43 OT DIIS     0.80E-01   11.0     0.00001330     -6905.7109109922 -2.54E-04
    44 OT DIIS     0.80E-01   11.5     0.00001311     -6905.7111827377 -2.72E-04
    45 OT DIIS     0.80E-01   11.3     0.00001296     -6905.7114501131 -2.67E-04
    46 OT DIIS     0.80E-01   11.4     0.00001283     -6905.7117056051 -2.55E-04
    47 OT DIIS     0.80E-01   11.2     0.00001266     -6905.7119395672 -2.34E-04
    48 OT DIIS     0.80E-01   11.3     0.00001254     -6905.7121913568 -2.52E-04
    49 OT DIIS     0.80E-01   11.2     0.00001242     -6905.7123934109 -2.02E-04
    50 OT DIIS     0.80E-01   11.4     0.00001229     -6905.7126224350 -2.29E-04
    51 OT DIIS     0.80E-01   11.4     0.00001219     -6905.7128474382 -2.25E-04
    52 OT DIIS     0.80E-01   11.3     0.00001204     -6905.7130956078 -2.48E-04
    53 OT DIIS     0.80E-01   11.0     0.00001192     -6905.7133295414 -2.34E-04
    54 OT DIIS     0.80E-01   11.3     0.00001182     -6905.7135572629 -2.28E-04
    55 OT DIIS     0.80E-01   11.7     0.00001169     -6905.7137814901 -2.24E-04
    56 OT DIIS     0.80E-01   11.7     0.00001158     -6905.7140496028 -2.68E-04
    57 OT DIIS     0.80E-01   11.5     0.00001146     -6905.7142636020 -2.14E-04
    58 OT DIIS     0.80E-01   12.2     0.00001134     -6905.7144857821 -2.22E-04
    59 OT DIIS     0.80E-01   11.4     0.00001125     -6905.7147035978 -2.18E-04
