 DBCSR| CPU Multiplication driver                                           XSMM (U)
 DBCSR| Multrec recursion limit                                              512 (U)
 DBCSR| Multiplication stack size                                          30000 (D)
 DBCSR| Maximum elements for images                                    UNLIMITED (U)
 DBCSR| Multiplicative factor virtual images                                   1 (U)
 DBCSR| Use multiplication densification                                       F (D)
 DBCSR| Multiplication size stacks                                             3 (U)
 DBCSR| Use memory pool for CPU allocation                                     F (U)
 DBCSR| Number of 3D layers                                               SINGLE (U)
 DBCSR| Use MPI memory allocation                                              F (U)
 DBCSR| Use RMA algorithm                                                      F (U)
 DBCSR| Use Communication thread                                               T (U)
 DBCSR| Communication thread load                                             30 (D)
 DBCSR| MPI: My process id                                                     0
 DBCSR| MPI: Number of processes                                               1
 DBCSR| OMP: Current number of threads                                        16
 DBCSR| OMP: Max number of threads                                            16
 DBCSR| ACC: Number of devices/node                                            1
 DBCSR| ACC: Number of stack-buffers per thread                                8 (U)
 DBCSR| ACC: Avoid driver after busy                                           F (U)
 DBCSR| ACC: Process inhomogeneous stacks                                      T (U)
 DBCSR| ACC: Min. flop for processing                                          0 (U)
 DBCSR| ACC: Use G2G algorithm                                                 F (D)
 DBCSR| ACC: Min. flop for sorting                                          4000 (U)
 DBCSR| ACC: Number of binning bins                                         4096 (U)
 DBCSR| ACC: Size of binning bins                                             16 (U)
 DBCSR| ACC: GPU backend is enabled                                            T (D)
 DBCSR| Split modifier for TAS multiplication algorithm                  1.0E+00 (U)


  **** **** ******  **  PROGRAM STARTED AT               2025-10-10 10:07:44.386
 ***** ** ***  *** **   PROGRAM STARTED ON                          8c908c064ff1
 **    ****   ******    PROGRAM STARTED BY                             <unknown>
 ***** **    ** ** **   PROGRAM PROCESS ID                                   614
  **** **  *******  **  PROGRAM STARTED IN                             /mnt/cp2k

 CP2K| version string:                                       CP2K version 2025.1
 CP2K| source code revision number:                                  git:9635df4
 CP2K| cp2kflags: omp libint fftw3 libxc libgrpp pexsi elpa elpa_nvidia_gpu para
 CP2K|            llel scalapack cosma quip xsmm dbcsr_acc plumed2 spglib libdft
 CP2K|            td4 sirius libvori libbqb offload_cuda spla_gemm_offloading li
 CP2K|            ibvdwxc hdf5 trexio
 CP2K| is freely available from                            https://www.cp2k.org/
 CP2K| Program compiled at                          Tue Jan 14 21:07:27 UTC 2025
 CP2K| Program compiled on                                          eb3a76499499
 CP2K| Program compiled for                                           local_cuda
 CP2K| Data directory path                                        /opt/cp2k/data
 CP2K| Input file name                                           HAP_410_opt.inp

 GLOBAL| Force Environment number                                              1
 GLOBAL| Basis set file name                                        BASIS_MOLOPT
 GLOBAL| Potential file name                                      GTH_POTENTIALS
 GLOBAL| MM Potential file name                                     MM_POTENTIAL
 GLOBAL| Coordinate file name                                  HAP_410_clean.xyz
 GLOBAL| Method name                                                        CP2K
 GLOBAL| Project name                                                HAP_410_opt
 GLOBAL| Run type                                                        GEO_OPT
 GLOBAL| FFT library                                                       FFTW3
 GLOBAL| Diagonalization library                                            ELPA
 GLOBAL| DGEMM library                                                      SPLA
 GLOBAL| Minimum number of eigenvectors for ELPA usage                        16
 GLOBAL| Orthonormality check for eigenvectors                          DISABLED
 GLOBAL| Matrix multiplication library                                     COSMA
 GLOBAL| All-to-all communication in single precision                          F
 GLOBAL| FFTs using library dependent lengths                                  F
 GLOBAL| Grid backend                                                       AUTO
 GLOBAL| Global print level                                                  LOW
 GLOBAL| MPI I/O enabled                                                       T
 GLOBAL| Total number of message passing processes                             1
 GLOBAL| Number of threads for this process                                   16
 GLOBAL| This output is from process                                           0
 GLOBAL| OpenMP stack size per thread (OMP_STACKSIZE)                        16M
 GLOBAL| CPU model name                           Intel(R) Core(TM) Ultra 7 265K
 GLOBAL| CPUID                                                              1002
 GLOBAL| Compiled for CPUID                                                    0

 *** HINT in environment.F:928 :: The compiler target flags (generic) used ***
 *** to build this binary cannot exploit all extensions of this CPU model  ***
 *** (x86_avx2). Consider compiler target flags as part of FCFLAGS and     ***
 *** CFLAGS (ARCH file).                                                   ***


 MEMORY| system memory details [Kb]
 MEMORY|                        rank 0           min           max       average
 MEMORY| MemTotal             49330324      49330324      49330324      49330324
 MEMORY| MemFree              47239836      47239836      47239836      47239836
 MEMORY| Buffers                 77528         77528         77528         77528
 MEMORY| Cached                1186620       1186620       1186620       1186620
 MEMORY| Slab                    89000         89000         89000         89000
 MEMORY| SReclaimable            20612         20612         20612         20612
 MEMORY| MemLikelyFree        48524596      48524596      48524596      48524596


 GENERATE|  Preliminary Number of Bonds generated:                             0
 GENERATE|  Achieved consistency in connectivity generation.

 *******************************************************************************
 *******************************************************************************
 **                                                                           **
 **     #####                         ##              ##                      **
 **    ##   ##            ##          ##              ##                      **
 **   ##     ##                       ##            ######                    **
 **   ##     ##  ##   ##  ##   #####  ##  ##   ####   ##    #####    #####    **
 **   ##     ##  ##   ##  ##  ##      ## ##   ##      ##   ##   ##  ##   ##   **
 **   ##  ## ##  ##   ##  ##  ##      ####     ###    ##   ######   ######    **
 **    ##  ###   ##   ##  ##  ##      ## ##      ##   ##   ##       ##        **
 **     #######   #####   ##   #####  ##  ##  ####    ##    #####   ##        **
 **           ##                                                    ##        **
 **                                                                           **
 **                                                ... make the atoms dance   **
 **                                                                           **
 **            Copyright (C) by CP2K developers group (2000-2025)             **
 **                      J. Chem. Phys. 152, 194103 (2020)                    **
 **                                                                           **
 *******************************************************************************


 TOTAL NUMBERS AND MAXIMUM NUMBERS

  Total number of            - Atomic kinds:                                   5
                             - Atoms:                                        387
                             - Shell sets:                                   387
                             - Shells:                                      2015
                             - Primitive Cartesian functions:               2031
                             - Cartesian basis functions:                   5338
                             - Spherical basis functions:                   4983

  Maximum angular momentum of- Orbital basis functions:                        2
                             - Local part of the GTH pseudopotential:          2
                             - Non-local part of the GTH pseudopotential:      3


 SCF PARAMETERS         Density guess:                                    ATOMIC
                        --------------------------------------------------------
                        max_scf:                                             100
                        max_scf_history:                                       0
                        max_diis:                                              4
                        --------------------------------------------------------
                        eps_scf:                                        1.00E-06
                        eps_scf_history:                                0.00E+00
                        eps_diis:                                       1.00E-01
                        eps_eigval:                                     1.00E-05
                        --------------------------------------------------------
                        level_shift [a.u.]:                             0.000000
                        --------------------------------------------------------
                        Outer loop SCF in use 
                        No variables optimised in outer loop
                        eps_scf                                         1.00E-06
                        max_scf                                               50
                        No outer loop optimization
                        step_size                                       5.00E-01

 *******************************************************************************
 ***                     STARTING GEOMETRY OPTIMIZATION                      ***
 ***                                 L-BFGS                                  ***
 *******************************************************************************

 --------------------------
 OPTIMIZATION STEP:      1
 --------------------------

 Number of electrons:                                                       2432
 Number of occupied orbitals:                                               1216
 Number of molecular orbitals:                                              1216

 Number of orbital functions:                                               4983
 Number of independent orbital functions:                                   4983

 Extrapolation method: initial_guess


 SCF WAVEFUNCTION OPTIMIZATION

  ----------------------------------- OT ---------------------------------------
  Minimizer      : DIIS                : direct inversion
                                         in the iterative subspace
                                         using   7 DIIS vectors
                                         safer DIIS on
  Preconditioner : FULL_SINGLE_INVERSE : inversion of 
                                         H + eS - 2*(Sc)(c^T*H*c+const)(Sc)^T
  Precond_solver : DEFAULT
  stepsize       :    0.08000000                  energy_gap     :    0.08000000
  eps_taylor     :   0.10000E-15                  max_taylor     :             4
  ----------------------------------- OT ---------------------------------------

  Step     Update method      Time    Convergence         Total energy    Change
  ------------------------------------------------------------------------------
     1 OT DIIS     0.80E-01   32.1     0.01698571     -6685.8134862792 -6.69E+03
     2 OT DIIS     0.80E-01   13.8     0.01499634     -6756.0933551839 -7.03E+01
     3 OT DIIS     0.80E-01   13.6     0.01885248     -6769.7900631485 -1.37E+01
     4 OT DIIS     0.80E-01   13.7     0.00666769     -6801.5427232935 -3.18E+01
     5 OT DIIS     0.80E-01   13.5     0.00600902     -6828.7664283956 -2.72E+01
     6 OT DIIS     0.80E-01   12.7     0.00513526     -6838.2236501722 -9.46E+00
     7 OT DIIS     0.80E-01   14.0     0.00332513     -6848.3286724545 -1.01E+01
     8 OT DIIS     0.80E-01   13.1     0.00256232     -6857.9463788781 -9.62E+00
     9 OT DIIS     0.80E-01   13.6     0.00205253     -6864.9264721618 -6.98E+00
    10 OT DIIS     0.80E-01   12.7     0.00162026     -6870.2909762752 -5.36E+00
    11 OT DIIS     0.80E-01   13.1     0.00127142     -6873.9720490766 -3.68E+00
    12 OT DIIS     0.80E-01   13.3     0.00102088     -6876.3077277305 -2.34E+00
    13 OT DIIS     0.80E-01   13.7     0.00080748     -6877.9879653264 -1.68E+00
    14 OT DIIS     0.80E-01   14.0     0.00065487     -6879.0763350845 -1.09E+00
    15 OT DIIS     0.80E-01   13.2     0.00055715     -6879.7505077383 -6.74E-01
    16 OT DIIS     0.80E-01   13.3     0.00046444     -6880.3332600281 -5.83E-01
    17 OT DIIS     0.80E-01   13.4     0.00038705     -6880.7788734077 -4.46E-01
    18 OT DIIS     0.80E-01   13.2     0.00033755     -6881.0520268872 -2.73E-01
    19 OT DIIS     0.80E-01   13.4     0.00028843     -6881.3208365094 -2.69E-01
    20 OT DIIS     0.80E-01   13.3     0.00025144     -6881.5195346156 -1.99E-01
    21 OT DIIS     0.80E-01   14.1     0.00022263     -6881.6683709176 -1.49E-01
    22 OT DIIS     0.80E-01   13.6     0.00019651     -6881.8088043365 -1.40E-01
    23 OT DIIS     0.80E-01   13.6     0.00017639     -6881.9093996185 -1.01E-01
    24 OT DIIS     0.80E-01   13.2     0.00015958     -6881.9932627470 -8.39E-02
    25 OT DIIS     0.80E-01   13.7     0.00014486     -6882.0642072312 -7.09E-02
    26 OT DIIS     0.80E-01   13.3     0.00013056     -6882.1334984071 -6.93E-02
    27 OT DIIS     0.80E-01   12.8     0.00011978     -6882.1854136840 -5.19E-02
    28 OT DIIS     0.80E-01   12.9     0.00011010     -6882.2301581226 -4.47E-02
    29 OT DIIS     0.80E-01   13.0     0.00010124     -6882.2743532488 -4.42E-02
    30 OT DIIS     0.80E-01   12.8     0.00009441     -6882.3085596191 -3.42E-02
    31 OT DIIS     0.80E-01   13.4     0.00008815     -6882.3391412327 -3.06E-02
    32 OT DIIS     0.80E-01   12.9     0.00008212     -6882.3690580807 -2.99E-02
    33 OT DIIS     0.80E-01   13.0     0.00007737     -6882.3951483966 -2.61E-02
    34 OT DIIS     0.80E-01   13.4     0.00007355     -6882.4140561086 -1.89E-02
    35 OT DIIS     0.80E-01   13.3     0.00006930     -6882.4346244160 -2.06E-02
    36 OT DIIS     0.80E-01   13.4     0.00006439     -6882.4595842733 -2.50E-02
    37 OT DIIS     0.80E-01   13.1     0.00006100     -6882.4770300807 -1.74E-02
    38 OT DIIS     0.80E-01   13.1     0.00005808     -6882.4906861849 -1.37E-02
    39 OT DIIS     0.80E-01   13.1     0.00005400     -6882.5097040654 -1.90E-02
    40 OT DIIS     0.80E-01   13.7     0.00005128     -6882.5243174862 -1.46E-02
    41 OT DIIS     0.80E-01   13.8     0.00004946     -6882.5330377329 -8.72E-03
    42 OT DIIS     0.80E-01   13.0     0.00004645     -6882.5456145153 -1.26E-02
    43 OT DIIS     0.80E-01   12.8     0.00004374     -6882.5597141945 -1.41E-02
    44 OT DIIS     0.80E-01   13.3     0.00004159     -6882.5708152527 -1.11E-02
    45 OT DIIS     0.80E-01   13.2     0.00004000     -6882.5776672995 -6.85E-03
    46 OT DIIS     0.80E-01   13.1     0.00003811     -6882.5874227707 -9.76E-03
    47 OT DIIS     0.80E-01   13.6     0.00003627     -6882.5970549079 -9.63E-03
    48 OT DIIS     0.80E-01   13.2     0.00003521     -6882.6028303218 -5.78E-03
    49 OT DIIS     0.80E-01   13.7     0.00003349     -6882.6103035372 -7.47E-03
    50 OT DIIS     0.80E-01   13.0     0.00003199     -6882.6174372551 -7.13E-03
    51 OT DIIS     0.80E-01   13.3     0.00003073     -6882.6241374291 -6.70E-03
    52 OT DIIS     0.80E-01   13.1     0.00002977     -6882.6292304565 -5.09E-03
    53 OT DIIS     0.80E-01   13.1     0.00002878     -6882.6342945027 -5.06E-03
    54 OT DIIS     0.80E-01   13.1     0.00002797     -6882.6389703502 -4.68E-03
    55 OT DIIS     0.80E-01   13.5     0.00002738     -6882.6436099339 -4.64E-03
    56 OT DIIS     0.80E-01   13.4     0.00002681     -6882.6449450197 -1.34E-03
    57 OT DIIS     0.80E-01   13.0     0.00002594     -6882.6525413355 -7.60E-03
    58 OT DIIS     0.80E-01   13.3     0.00002477     -6882.6578667314 -5.33E-03
    59 OT DIIS     0.80E-01   13.1     0.00002415     -6882.6609304757 -3.06E-03
    60 OT DIIS     0.80E-01   13.0     0.00002351     -6882.6646803520 -3.75E-03
    61 OT DIIS     0.80E-01   13.1     0.00002301     -6882.6678968663 -3.22E-03
    62 OT DIIS     0.80E-01   13.2     0.00002260     -6882.6702790911 -2.38E-03
    63 OT DIIS     0.80E-01   13.1     0.00002222     -6882.6725475292 -2.27E-03
    64 OT DIIS     0.80E-01   13.6     0.00002202     -6882.6732219529 -6.74E-04
    65 OT DIIS     0.80E-01   13.4     0.00002177     -6882.6736713776 -4.49E-04
    66 OT DIIS     0.80E-01   13.4     0.00002136     -6882.6754835609 -1.81E-03
    67 OT DIIS     0.80E-01   13.4     0.00002101     -6882.6775180361 -2.03E-03
    68 OT DIIS     0.80E-01   13.0     0.00002059     -6882.6797662812 -2.25E-03
    69 OT DIIS     0.80E-01   13.6     0.00002025     -6882.6815590748 -1.79E-03
    70 OT DIIS     0.80E-01   13.4     0.00001996     -6882.6831346550 -1.58E-03
    71 OT DIIS     0.80E-01   13.5     0.00001963     -6882.6850839942 -1.95E-03
    72 OT DIIS     0.80E-01   13.5     0.00001935     -6882.6872152857 -2.13E-03
    73 OT DIIS     0.80E-01   13.7     0.00001904     -6882.6887564892 -1.54E-03
    74 OT DIIS     0.80E-01   13.4     0.00001878     -6882.6908994510 -2.14E-03
    75 OT DIIS     0.80E-01   13.4     0.00001820     -6882.6945571096 -3.66E-03
    76 OT DIIS     0.80E-01   13.9     0.00001774     -6882.6992353092 -4.68E-03
    77 OT DIIS     0.80E-01   13.0     0.00001688     -6882.7028887355 -3.65E-03
    78 OT DIIS     0.80E-01   13.3     0.00001635     -6882.7075490330 -4.66E-03
    79 OT DIIS     0.80E-01   13.9     0.00001590     -6882.7104389418 -2.89E-03
    80 OT DIIS     0.80E-01   13.4     0.00001659     -6882.7123261386 -1.89E-03
    81 OT DIIS     0.80E-01   13.7     0.00001571     -6882.7146899569 -2.36E-03
    82 OT DIIS     0.80E-01   13.4     0.00001480     -6882.7176790927 -2.99E-03
    83 OT DIIS     0.80E-01   13.2     0.00001440     -6882.7204382900 -2.76E-03
    84 OT DIIS     0.80E-01   13.4     0.00001383     -6882.7224183815 -1.98E-03
    85 OT DIIS     0.80E-01   12.9     0.00001368     -6882.7248581339 -2.44E-03
    86 OT DIIS     0.80E-01   13.4     0.00001590     -6882.7256541105 -7.96E-04
    87 OT DIIS     0.80E-01   13.2     0.00001316     -6882.7272567920 -1.60E-03
    88 OT DIIS     0.80E-01   13.0     0.00001261     -6882.7291562567 -1.90E-03
    89 OT DIIS     0.80E-01   13.0     0.00001412     -6882.7307020597 -1.55E-03
    90 OT DIIS     0.80E-01   13.6     0.00001207     -6882.7330107028 -2.31E-03
    91 OT DIIS     0.80E-01   13.1     0.00001349     -6882.7333763984 -3.66E-04
    92 OT DIIS     0.80E-01   13.5     0.00001274     -6882.7340311134 -6.55E-04
    93 OT DIIS     0.80E-01   13.5     0.00001223     -6882.7349706983 -9.40E-04
    94 OT DIIS     0.80E-01   13.5     0.00001108     -6882.7384221912 -3.45E-03
    95 OT DIIS     0.80E-01   13.0     0.00001049     -6882.7393772607 -9.55E-04
    96 OT DIIS     0.80E-01   12.9     0.00001052     -6882.7394001048 -2.28E-05
    97 OT SD       0.80E-01   13.2     0.00001085     -6882.7394268250 -2.67E-05
    98 OT DIIS     0.80E-01   12.9     0.00001024     -6882.7394815667 -5.47E-05
    99 OT DIIS     0.80E-01   12.9     0.00000981     -6882.7399814636 -5.00E-04
   100 OT DIIS     0.80E-01   13.2     0.00000965     -6882.7407321695 -7.51E-04

  Leaving inner SCF loop after reaching   100 steps.


  Electronic density on regular grids:      -2432.0000000061       -0.0000000061
  Core density on regular grids:             2431.9999999988       -0.0000000012
  Total charge density on r-space grids:       -0.0000000072
  Total charge density g-space grids:          -0.0000000072

  Overlap energy of the core charge distribution:               0.03711640769283
  Self energy of the core charge distribution:             -16017.19408509233290
  Core Hamiltonian energy:                                   4347.04953107917208
  Hartree energy:                                            6119.26985101589980
  Exchange-correlation energy:                              -1330.11724302874291
  Dispersion energy:                                           -1.78590255118337

  Total energy:                                             -6882.74073216949455

  outer SCF iter =    1 RMS gradient =   0.96E-05 energy =      -6882.7407321695

  ----------------------------------- OT ---------------------------------------
  Minimizer      : DIIS                : direct inversion
                                         in the iterative subspace
                                         using   7 DIIS vectors
                                         safer DIIS on
  Preconditioner : FULL_SINGLE_INVERSE : inversion of 
                                         H + eS - 2*(Sc)(c^T*H*c+const)(Sc)^T
  Precond_solver : DEFAULT
  stepsize       :    0.08000000                  energy_gap     :    0.08000000
  eps_taylor     :   0.10000E-15                  max_taylor     :             4
  ----------------------------------- OT ---------------------------------------

  Step     Update method      Time    Convergence         Total energy    Change
  ------------------------------------------------------------------------------
     1 OT DIIS     0.80E-01   36.6     0.00010717     -6882.7416974171 -9.65E-04
     2 OT DIIS     0.80E-01   12.9     0.00013197     -6882.7450542061 -3.36E-03
     3 OT DIIS     0.80E-01   12.5     0.00013467     -6882.7461426247 -1.09E-03
     4 OT DIIS     0.80E-01   12.8     0.00010814     -6882.7476815831 -1.54E-03
     5 OT DIIS     0.80E-01   13.0     0.00009322     -6882.7497522524 -2.07E-03
     6 OT DIIS     0.80E-01   12.8     0.00007298     -6882.7510219734 -1.27E-03
     7 OT DIIS     0.80E-01   13.4     0.00006877     -6882.7526470903 -1.63E-03
     8 OT DIIS     0.80E-01   12.6     0.00005996     -6882.7540696281 -1.42E-03
     9 OT DIIS     0.80E-01   12.7     0.00005282     -6882.7553161792 -1.25E-03
    10 OT DIIS     0.80E-01   13.2     0.00005691     -6882.7564632604 -1.15E-03
    11 OT DIIS     0.80E-01   13.2     0.00004916     -6882.7579400580 -1.48E-03
    12 OT DIIS     0.80E-01   13.4     0.00005036     -6882.7591720643 -1.23E-03
    13 OT DIIS     0.80E-01   13.3     0.00005182     -6882.7603846882 -1.21E-03
    14 OT DIIS     0.80E-01   13.2     0.00005124     -6882.7616408408 -1.26E-03
    15 OT DIIS     0.80E-01   13.4     0.00004873     -6882.7625759685 -9.35E-04
    16 OT DIIS     0.80E-01   13.2     0.00004928     -6882.7633637185 -7.88E-04
    17 OT DIIS     0.80E-01   13.0     0.00004688     -6882.7640847779 -7.21E-04
    18 OT DIIS     0.80E-01   13.4     0.00004607     -6882.7654334127 -1.35E-03
    19 OT DIIS     0.80E-01   13.2     0.00004639     -6882.7653145939  1.19E-04
    20 OT DIIS     0.80E-01   13.1     0.00004689     -6882.7658138422 -4.99E-04
    21 OT DIIS     0.80E-01   14.0     0.00004444     -6882.7664449514 -6.31E-04
    22 OT DIIS     0.80E-01   13.6     0.00004430     -6882.7664540262 -9.07E-06
    23 OT DIIS     0.80E-01   13.3     0.00003929     -6882.7665986713 -1.45E-04
    24 OT DIIS     0.80E-01   13.3     0.00003571     -6882.7667871899 -1.89E-04
    25 OT DIIS     0.80E-01   13.1     0.00003279     -6882.7669858609 -1.99E-04
    26 OT DIIS     0.80E-01   12.9     0.00003165     -6882.7672579790 -2.72E-04
    27 OT DIIS     0.80E-01   12.9     0.00003189     -6882.7673378381 -7.99E-05
    28 OT DIIS     0.80E-01   13.3     0.00003137     -6882.7675850637 -2.47E-04
    29 OT DIIS     0.80E-01   13.6     0.00003201     -6882.7679394415 -3.54E-04
    30 OT DIIS     0.80E-01   13.8     0.00003529     -6882.7680868079 -1.47E-04
    31 OT DIIS     0.80E-01   13.6     0.00003452     -6882.7682681995 -1.81E-04
    32 OT DIIS     0.80E-01   12.9     0.00003396     -6882.7684806107 -2.12E-04
    33 OT DIIS     0.80E-01   12.8     0.00003248     -6882.7687151067 -2.34E-04
    34 OT DIIS     0.80E-01   13.1     0.00003114     -6882.7688599868 -1.45E-04
    35 OT DIIS     0.80E-01   13.1     0.00003064     -6882.7689148633 -5.49E-05
    36 OT DIIS     0.80E-01   13.0     0.00002851     -6882.7690359274 -1.21E-04
    37 OT DIIS     0.80E-01   13.1     0.00002742     -6882.7692398102 -2.04E-04
    38 OT DIIS     0.80E-01   13.0     0.00002815     -6882.7693478961 -1.08E-04
    39 OT DIIS     0.80E-01   13.2     0.00002771     -6882.7694602553 -1.12E-04
    40 OT DIIS     0.80E-01   13.3     0.00002755     -6882.7696278775 -1.68E-04
    41 OT DIIS     0.80E-01   13.4     0.00002777     -6882.7698610874 -2.33E-04
    42 OT DIIS     0.80E-01   13.5     0.00002837     -6882.7699900777 -1.29E-04
    43 OT DIIS     0.80E-01   13.4     0.00002965     -6882.7701541057 -1.64E-04
    44 OT DIIS     0.80E-01   13.5     0.00002889     -6882.7702559306 -1.02E-04
    45 OT DIIS     0.80E-01   13.0     0.00002783     -6882.7704132976 -1.57E-04
    46 OT DIIS     0.80E-01   13.1     0.00002802     -6882.7705117263 -9.84E-05
    47 OT DIIS     0.80E-01   13.4     0.00002662     -6882.7705563926 -4.47E-05
    48 OT DIIS     0.80E-01   13.2     0.00002497     -6882.7706515274 -9.51E-05
    49 OT DIIS     0.80E-01   13.4     0.00002414     -6882.7708048326 -1.53E-04
    50 OT DIIS     0.80E-01   13.3     0.00002401     -6882.7708778526 -7.30E-05
    51 OT DIIS     0.80E-01   13.2     0.00002463     -6882.7710359690 -1.58E-04
    52 OT DIIS     0.80E-01   13.6     0.00002504     -6882.7711467713 -1.11E-04
    53 OT DIIS     0.80E-01   12.9     0.00002531     -6882.7712845813 -1.38E-04
    54 OT DIIS     0.80E-01   13.1     0.00002667     -6882.7714362856 -1.52E-04
    55 OT DIIS     0.80E-01   13.0     0.00002689     -6882.7714891564 -5.29E-05
    56 OT DIIS     0.80E-01   13.8     0.00002566     -6882.7715650926 -7.59E-05
    57 OT DIIS     0.80E-01   13.3     0.00002423     -6882.7717027306 -1.38E-04
    58 OT DIIS     0.80E-01   13.4     0.00002315     -6882.7717126909 -9.96E-06
    59 OT DIIS     0.80E-01   13.5     0.00002251     -6882.7718377292 -1.25E-04
    60 OT DIIS     0.80E-01   13.2     0.00002211     -6882.7719075905 -6.99E-05
    61 OT DIIS     0.80E-01   13.4     0.00002174     -6882.7719894859 -8.19E-05
    62 OT DIIS     0.80E-01   13.3     0.00002236     -6882.7721216878 -1.32E-04
    63 OT DIIS     0.80E-01   13.2     0.00002326     -6882.7722015499 -7.99E-05
    64 OT DIIS     0.80E-01   13.7     0.00002351     -6882.7722923112 -9.08E-05
    65 OT DIIS     0.80E-01   13.3     0.00002319     -6882.7724371573 -1.45E-04
    66 OT DIIS     0.80E-01   13.7     0.00002320     -6882.7724401970 -3.04E-06
    67 OT DIIS     0.80E-01   13.2     0.00002270     -6882.7725770149 -1.37E-04
    68 OT DIIS     0.80E-01   13.3     0.00002220     -6882.7726276565 -5.06E-05
    69 OT DIIS     0.80E-01   13.2     0.00002102     -6882.7726570312 -2.94E-05
    70 OT DIIS     0.80E-01   13.3     0.00002045     -6882.7727570983 -1.00E-04
    71 OT DIIS     0.80E-01   13.2     0.00002037     -6882.7728169322 -5.98E-05
    72 OT DIIS     0.80E-01   13.7     0.00002022     -6882.7728833805 -6.64E-05
    73 OT DIIS     0.80E-01   13.1     0.00002010     -6882.7729950602 -1.12E-04
    74 OT DIIS     0.80E-01   13.5     0.00002068     -6882.7730277686 -3.27E-05
    75 OT DIIS     0.80E-01   13.2     0.00002080     -6882.7731689105 -1.41E-04
    76 OT DIIS     0.80E-01   13.8     0.00002154     -6882.7732476032 -7.87E-05
    77 OT DIIS     0.80E-01   13.4     0.00002121     -6882.7732564756 -8.87E-06
    78 OT DIIS     0.80E-01   13.9     0.00002059     -6882.7733484690 -9.20E-05
    79 OT DIIS     0.80E-01   13.6     0.00002022     -6882.7733990469 -5.06E-05
    80 OT DIIS     0.80E-01   13.1     0.00001944     -6882.7734417608 -4.27E-05
    81 OT DIIS     0.80E-01   13.4     0.00001854     -6882.7735177424 -7.60E-05
    82 OT DIIS     0.80E-01   14.4     0.00001837     -6882.7735398360 -2.21E-05
    83 OT DIIS     0.80E-01   13.6     0.00001803     -6882.7736403088 -1.00E-04
    84 OT DIIS     0.80E-01   13.4     0.00001876     -6882.7737246419 -8.43E-05
    85 OT DIIS     0.80E-01   13.7     0.00001921     -6882.7737514658 -2.68E-05
    86 OT DIIS     0.80E-01   13.5     0.00001929     -6882.7738422267 -9.08E-05
    87 OT DIIS     0.80E-01   13.6     0.00001976     -6882.7739120411 -6.98E-05
    88 OT DIIS     0.80E-01   13.9     0.00001962     -6882.7739570336 -4.50E-05
    89 OT DIIS     0.80E-01   13.4     0.00001860     -6882.7740115083 -5.45E-05
    90 OT DIIS     0.80E-01   14.1     0.00001813     -6882.7740171229 -5.61E-06
    91 OT DIIS     0.80E-01   13.7     0.00001705     -6882.7740915410 -7.44E-05
    92 OT DIIS     0.80E-01   13.5     0.00001704     -6882.7741584514 -6.69E-05
    93 OT DIIS     0.80E-01   13.4     0.00001706     -6882.7741790160 -2.06E-05
    94 OT DIIS     0.80E-01   13.5     0.00001688     -6882.7742451341 -6.61E-05
    95 OT DIIS     0.80E-01   13.8     0.00001735     -6882.7743179238 -7.28E-05
    96 OT DIIS     0.80E-01   13.8     0.00001786     -6882.7743794644 -6.15E-05
    97 OT DIIS     0.80E-01   13.2     0.00001776     -6882.7744317776 -5.23E-05
    98 OT DIIS     0.80E-01   13.8     0.00001808     -6882.7744544118 -2.26E-05
    99 OT DIIS     0.80E-01   13.2     0.00001708     -6882.7745156049 -6.12E-05
   100 OT DIIS     0.80E-01   13.3     0.00001691     -6882.7745789055 -6.33E-05

  Leaving inner SCF loop after reaching   100 steps.


  Electronic density on regular grids:      -2432.0000000061       -0.0000000061
  Core density on regular grids:             2431.9999999988       -0.0000000012
  Total charge density on r-space grids:       -0.0000000072
  Total charge density g-space grids:          -0.0000000072

  Overlap energy of the core charge distribution:               0.03711640769283
  Self energy of the core charge distribution:             -16017.19408509233290
  Core Hamiltonian energy:                                   4346.95826237752226
  Hartree energy:                                            6119.32560016520711
  Exchange-correlation energy:                              -1330.11557021243448
  Dispersion energy:                                           -1.78590255118337

  Total energy:                                             -6882.77457890552796

  outer SCF iter =    2 RMS gradient =   0.17E-04 energy =      -6882.7745789055

  ----------------------------------- OT ---------------------------------------
  Minimizer      : DIIS                : direct inversion
                                         in the iterative subspace
                                         using   7 DIIS vectors
                                         safer DIIS on
  Preconditioner : FULL_SINGLE_INVERSE : inversion of 
                                         H + eS - 2*(Sc)(c^T*H*c+const)(Sc)^T
  Precond_solver : DEFAULT
  stepsize       :    0.08000000                  energy_gap     :    0.08000000
  eps_taylor     :   0.10000E-15                  max_taylor     :             4
  ----------------------------------- OT ---------------------------------------

  Step     Update method      Time    Convergence         Total energy    Change
  ------------------------------------------------------------------------------
     1 OT DIIS     0.80E-01   35.6     0.00001663     -6882.7745846269 -5.72E-06
     2 OT DIIS     0.80E-01   12.7     0.00005105     -6882.7746023093 -1.77E-05
     3 OT DIIS     0.80E-01   12.6     0.00001489     -6882.7746996947 -9.74E-05
     4 OT DIIS     0.80E-01   12.6     0.00001426     -6882.7747279301 -2.82E-05
     5 OT DIIS     0.80E-01   13.5     0.00002314     -6882.7753443708 -6.16E-04
     6 OT DIIS     0.80E-01   13.8     0.00003426     -6882.7770916505 -1.75E-03
     7 OT DIIS     0.80E-01   13.5     0.00002934     -6882.7771584678 -6.68E-05
     8 OT SD       0.80E-01   13.2     0.00003222     -6882.7771769475 -1.85E-05
     9 OT DIIS     0.80E-01   13.2     0.00006729     -6882.7770282291  1.49E-04
    10 OT DIIS     0.80E-01   13.6     0.00001680     -6882.7770984464 -7.02E-05
    11 OT DIIS     0.80E-01   13.1     0.00001250     -6882.7773634725 -2.65E-04
    12 OT SD       0.80E-01   13.5     0.00001772     -6882.7776367048 -2.73E-04
    13 OT DIIS     0.80E-01   13.1     0.00007401     -6882.7774787408  1.58E-04
    14 OT DIIS     0.80E-01   13.3     0.00001096     -6882.7775763476 -9.76E-05
    15 OT SD       0.80E-01   13.3     0.00000948     -6882.7776333584 -5.70E-05
    16 OT DIIS     0.80E-01   12.9     0.00001574     -6882.7776660331 -3.27E-05
    17 OT SD       0.80E-01   13.4     0.00000973     -6882.7777844802 -1.18E-04
    18 OT DIIS     0.80E-01   13.0     0.00002318     -6882.7778055884 -2.11E-05
    19 OT DIIS     0.80E-01   13.5     0.00000987     -6882.7778720660 -6.65E-05
    20 OT DIIS     0.80E-01   13.0     0.00000908     -6882.7781244121 -2.52E-04
    21 OT DIIS     0.80E-01   13.3     0.00000957     -6882.7782109075 -8.65E-05
    22 OT DIIS     0.80E-01   13.3     0.00000929     -6882.7782854886 -7.46E-05
    23 OT DIIS     0.80E-01   12.9     0.00000965     -6882.7783842116 -9.87E-05
    24 OT SD       0.80E-01   13.2     0.00000912     -6882.7786662534 -2.82E-04
    25 OT SD       0.80E-01   13.2     0.00001519     -6882.7786892870 -2.30E-05
    26 OT DIIS     0.80E-01   13.1     0.00006333     -6882.7785740411  1.15E-04
    27 OT DIIS     0.80E-01   13.5     0.00001230     -6882.7791290542 -5.55E-04
    28 OT SD       0.80E-01   13.3     0.00001638     -6882.7793790369 -2.50E-04
    29 OT DIIS     0.80E-01   13.2     0.00003045     -6882.7793659226  1.31E-05
    30 OT DIIS     0.80E-01   13.1     0.00001166     -6882.7793172164  4.87E-05
    31 OT SD       0.80E-01   13.4     0.00001255     -6882.7796224781 -3.05E-04
    32 OT DIIS     0.80E-01   13.2     0.00002572     -6882.7796184916  3.99E-06
    33 OT DIIS     0.80E-01   13.1     0.00000986     -6882.7798083091 -1.90E-04
    34 OT DIIS     0.80E-01   13.0     0.00000834     -6882.7798677361 -5.94E-05
    35 OT DIIS     0.80E-01   13.4     0.00000765     -6882.7799239982 -5.63E-05
    36 OT DIIS     0.80E-01   13.2     0.00000830     -6882.7800582462 -1.34E-04
    37 OT DIIS     0.80E-01   13.7     0.00000824     -6882.7801473243 -8.91E-05
    38 OT SD       0.80E-01   12.9     0.00001084     -6882.7802375455 -9.02E-05
    39 OT DIIS     0.80E-01   13.2     0.00003251     -6882.7802136831  2.39E-05
    40 OT DIIS     0.80E-01   13.5     0.00001238     -6882.7801982901  1.54E-05
    41 OT DIIS     0.80E-01   13.0     0.00000805     -6882.7803677995 -1.70E-04
    42 OT SD       0.80E-01   12.7     0.00000762     -6882.7803919264 -2.41E-05
    43 OT DIIS     0.80E-01   12.9     0.00002534     -6882.7803828044  9.12E-06
    44 OT DIIS     0.80E-01   13.3     0.00000898     -6882.7805818881 -1.99E-04
    45 OT SD       0.80E-01   13.2     0.00000888     -6882.7806150208 -3.31E-05
    46 OT DIIS     0.80E-01   13.5     0.00002839     -6882.7805976299  1.74E-05
    47 OT DIIS     0.80E-01   13.5     0.00000919     -6882.7805880270  9.60E-06
    48 OT SD       0.80E-01   13.7     0.00000758     -6882.7807430802 -1.55E-04
    49 OT DIIS     0.80E-01   13.1     0.00001751     -6882.7807416769  1.40E-06
    50 OT DIIS     0.80E-01   13.5     0.00000821     -6882.7807496908 -8.01E-06
    51 OT DIIS     0.80E-01   13.1     0.00000553     -6882.7808232280 -7.35E-05
    52 OT SD       0.80E-01   13.1     0.00000742     -6882.7808954039 -7.22E-05
    53 OT DIIS     0.80E-01   13.4     0.00002019     -6882.7808890515  6.35E-06
    54 OT SD       0.80E-01   13.1     0.00000579     -6882.7809580154 -6.90E-05
    55 OT DIIS     0.80E-01   13.1     0.00002054     -6882.7809509723  7.04E-06
    56 OT DIIS     0.80E-01   13.0     0.00000456     -6882.7809523124 -1.34E-06
    57 OT DIIS     0.80E-01   13.1     0.00000440     -6882.7809802098 -2.79E-05
    58 OT DIIS     0.80E-01   13.4     0.00000489     -6882.7809990759 -1.89E-05
    59 OT SD       0.80E-01   13.2     0.00000560     -6882.7810108670 -1.18E-05
    60 OT DIIS     0.80E-01   13.4     0.00002352     -6882.7809993319  1.15E-05
    61 OT DIIS     0.80E-01   13.8     0.00000464     -6882.7810659135 -6.66E-05
    62 OT DIIS     0.80E-01   13.0     0.00000522     -6882.7810706569 -4.74E-06
    63 OT SD       0.80E-01   13.6     0.00000548     -6882.7811585499 -8.79E-05
    64 OT SD       0.80E-01   13.3     0.00001550     -6882.7811551396  3.41E-06
    65 OT DIIS     0.80E-01   13.1     0.00008191     -6882.7809258677  2.29E-04
    66 OT SD       0.80E-01   13.1     0.00000595     -6882.7812531147 -3.27E-04
    67 OT DIIS     0.80E-01   13.2     0.00001414     -6882.7812492518  3.86E-06
    68 OT DIIS     0.80E-01   13.2     0.00000349     -6882.7812611106 -1.19E-05
    69 OT DIIS     0.80E-01   13.3     0.00000365     -6882.7812936342 -3.25E-05
    70 OT SD       0.80E-01   13.0     0.00000451     -6882.7813271539 -3.35E-05
    71 OT DIIS     0.80E-01   13.6     0.00001175     -6882.7813257726  1.38E-06
    72 OT DIIS     0.80E-01   13.4     0.00000344     -6882.7813538056 -2.80E-05
    73 OT SD       0.80E-01   13.1     0.00000388     -6882.7813748104 -2.10E-05
    74 OT DIIS     0.80E-01   13.3     0.00001235     -6882.7813725067  2.30E-06
    75 OT DIIS     0.80E-01   13.3     0.00000316     -6882.7814056153 -3.31E-05
    76 OT DIIS     0.80E-01   13.5     0.00000353     -6882.7814234914 -1.79E-05
    77 OT SD       0.80E-01   13.2     0.00000389     -6882.7814343779 -1.09E-05
    78 OT DIIS     0.80E-01   13.1     0.00001031     -6882.7814330192  1.36E-06
    79 OT DIIS     0.80E-01   13.2     0.00000381     -6882.7814297434  3.28E-06
    80 OT SD       0.80E-01   13.3     0.00000270     -6882.7814459489 -1.62E-05
    81 OT DIIS     0.80E-01   13.6     0.00000718     -6882.7814465173 -5.68E-07
    82 OT DIIS     0.80E-01   13.1     0.00000261     -6882.7814537581 -7.24E-06
    83 OT DIIS     0.80E-01   13.1     0.00000231     -6882.7814593216 -5.56E-06
    84 OT DIIS     0.80E-01   13.7     0.00000259     -6882.7814699719 -1.07E-05
    85 OT DIIS     0.80E-01   13.3     0.00000268     -6882.7814716393 -1.67E-06
    86 OT DIIS     0.80E-01   13.0     0.00000247     -6882.7814823784 -1.07E-05
    87 OT SD       0.80E-01   13.6     0.00000220     -6882.7814972396 -1.49E-05
    88 OT DIIS     0.80E-01   13.6     0.00000504     -6882.7814980648 -8.25E-07
    89 OT DIIS     0.80E-01   13.5     0.00000238     -6882.7815045087 -6.44E-06
    90 OT DIIS     0.80E-01   13.3     0.00000200     -6882.7815189697 -1.45E-05
    91 OT DIIS     0.80E-01   13.4     0.00000220     -6882.7815204823 -1.51E-06
    92 OT DIIS     0.80E-01   13.3     0.00000224     -6882.7815247850 -4.30E-06
    93 OT DIIS     0.80E-01   13.3     0.00000198     -6882.7815418798 -1.71E-05
    94 OT SD       0.80E-01   13.6     0.00000219     -6882.7815478068 -5.93E-06
    95 OT DIIS     0.80E-01   13.5     0.00000738     -6882.7815472097  5.97E-07
    96 OT DIIS     0.80E-01   13.3     0.00000210     -6882.7815512286 -4.02E-06
    97 OT DIIS     0.80E-01   13.1     0.00000168     -6882.7815569732 -5.74E-06
    98 OT DIIS     0.80E-01   13.4     0.00000171     -6882.7815580129 -1.04E-06
    99 OT DIIS     0.80E-01   13.1     0.00000170     -6882.7815627447 -4.73E-06
   100 OT DIIS     0.80E-01   13.4     0.00000167     -6882.7815723661 -9.62E-06

  Leaving inner SCF loop after reaching   100 steps.


  Electronic density on regular grids:      -2432.0000000060       -0.0000000060
  Core density on regular grids:             2431.9999999988       -0.0000000012
  Total charge density on r-space grids:       -0.0000000072
  Total charge density g-space grids:          -0.0000000072

  Overlap energy of the core charge distribution:               0.03711640769283
  Self energy of the core charge distribution:             -16017.19408509233290
  Core Hamiltonian energy:                                   4346.91448434271479
  Hartree energy:                                            6119.34986614119862
  Exchange-correlation energy:                              -1330.10305161415386
  Dispersion energy:                                           -1.78590255118337

  Total energy:                                             -6882.78157236606330

  outer SCF iter =    3 RMS gradient =   0.17E-05 energy =      -6882.7815723661

  ----------------------------------- OT ---------------------------------------
  Minimizer      : DIIS                : direct inversion
                                         in the iterative subspace
                                         using   7 DIIS vectors
                                         safer DIIS on
  Preconditioner : FULL_SINGLE_INVERSE : inversion of 
                                         H + eS - 2*(Sc)(c^T*H*c+const)(Sc)^T
  Precond_solver : DEFAULT
  stepsize       :    0.08000000                  energy_gap     :    0.08000000
  eps_taylor     :   0.10000E-15                  max_taylor     :             4
  ----------------------------------- OT ---------------------------------------

  Step     Update method      Time    Convergence         Total energy    Change
  ------------------------------------------------------------------------------
     1 OT DIIS     0.80E-01   34.9     0.00000177     -6882.7815785013 -6.14E-06
     2 OT DIIS     0.80E-01   12.6     0.00000427     -6882.7815791691 -6.68E-07
     3 OT DIIS     0.80E-01   12.5     0.00000170     -6882.7815799108 -7.42E-07
     4 OT DIIS     0.80E-01   12.8     0.00000160     -6882.7815803431 -4.32E-07
     5 OT DIIS     0.80E-01   13.0     0.00000159     -6882.7815810588 -7.16E-07
     6 OT DIIS     0.80E-01   12.5     0.00000167     -6882.7815833560 -2.30E-06
     7 OT DIIS     0.80E-01   12.8     0.00000165     -6882.7815885641 -5.21E-06
     8 OT DIIS     0.80E-01   12.2     0.00000163     -6882.7815953195 -6.76E-06
     9 OT DIIS     0.80E-01   13.1     0.00000164     -6882.7815966269 -1.31E-06
    10 OT DIIS     0.80E-01   12.9     0.00000154     -6882.7816026872 -6.06E-06
    11 OT DIIS     0.80E-01   13.0     0.00000154     -6882.7816055970 -2.91E-06
    12 OT DIIS     0.80E-01   13.0     0.00000150     -6882.7816072621 -1.67E-06
    13 OT DIIS     0.80E-01   13.0     0.00000149     -6882.7816092372 -1.98E-06
    14 OT DIIS     0.80E-01   12.8     0.00000148     -6882.7816121802 -2.94E-06
    15 OT DIIS     0.80E-01   12.7     0.00000149     -6882.7816135295 -1.35E-06
    16 OT DIIS     0.80E-01   12.6     0.00000146     -6882.7816136674 -1.38E-07
    17 OT SD       0.80E-01   13.0     0.00000144     -6882.7816183334 -4.67E-06
    18 OT DIIS     0.80E-01   13.1     0.00000306     -6882.7816188899 -5.57E-07
    19 OT DIIS     0.80E-01   13.0     0.00000156     -6882.7816227280 -3.84E-06
    20 OT DIIS     0.80E-01   13.2     0.00000153     -6882.7816227999 -7.19E-08
    21 OT DIIS     0.80E-01   13.4     0.00000144     -6882.7816258278 -3.03E-06
    22 OT DIIS     0.80E-01   12.7     0.00000143     -6882.7816262296 -4.02E-07
    23 OT DIIS     0.80E-01   13.2     0.00000142     -6882.7816262661 -3.66E-08
    24 OT SD       0.80E-01   13.2     0.00000149     -6882.7816360033 -9.74E-06
    25 OT DIIS     0.80E-01   12.8     0.00000357     -6882.7816363074 -3.04E-07
    26 OT DIIS     0.80E-01   12.7     0.00000145     -6882.7816392239 -2.92E-06
    27 OT DIIS     0.80E-01   12.7     0.00000149     -6882.7816443643 -5.14E-06
    28 OT SD       0.80E-01   12.9     0.00000144     -6882.7816573501 -1.30E-05
    29 OT SD       0.80E-01   12.6     0.00000354     -6882.7816576287 -2.79E-07
    30 OT DIIS     0.80E-01   13.1     0.00001897     -6882.7816461732  1.15E-05
    31 OT SD       0.80E-01   12.9     0.00000127     -6882.7816653360 -1.92E-05
    32 OT DIIS     0.80E-01   12.7     0.00000233     -6882.7816658262 -4.90E-07
    33 OT DIIS     0.80E-01   12.7     0.00000125     -6882.7816733286 -7.50E-06
    34 OT DIIS     0.80E-01   12.8     0.00000148     -6882.7816855084 -1.22E-05
    35 OT SD       0.80E-01   13.2     0.00000162     -6882.7816915944 -6.09E-06
    36 OT SD       0.80E-01   12.9     0.00000418     -6882.7816915665  2.80E-08
    37 OT DIIS     0.80E-01   12.8     0.00002122     -6882.7816764430  1.51E-05
    38 OT DIIS     0.80E-01   12.5     0.00000114     -6882.7816899664 -1.35E-05
    39 OT SD       0.80E-01   12.7     0.00000119     -6882.7816965629 -6.60E-06
    40 OT DIIS     0.80E-01   12.4     0.00000274     -6882.7816969278 -3.65E-07
    41 OT DIIS     0.80E-01   12.9     0.00000113     -6882.7817010399 -4.11E-06
    42 OT SD       0.80E-01   12.5     0.00000129     -6882.7817115424 -1.05E-05
    43 OT SD       0.80E-01   12.7     0.00000290     -6882.7817117873 -2.45E-07
    44 OT DIIS     0.80E-01   12.8     0.00001346     -6882.7817056339  6.15E-06
    45 OT SD       0.80E-01   12.7     0.00000130     -6882.7817252819 -1.96E-05
    46 OT SD       0.80E-01   12.4     0.00000295     -6882.7817254848 -2.03E-07
    47 OT DIIS     0.80E-01   12.8     0.00001440     -6882.7817187001  6.78E-06
    48 OT DIIS     0.80E-01   12.4     0.00000137     -6882.7817382750 -1.96E-05
    49 OT SD       0.80E-01   12.7     0.00000152     -6882.7817401845 -1.91E-06
    50 OT SD       0.80E-01   13.0     0.00000418     -6882.7817400111  1.73E-07
    51 OT DIIS     0.80E-01   12.5     0.00002133     -6882.7817247039  1.53E-05
    52 OT SD       0.80E-01   12.6     0.00000104     -6882.7817407989 -1.61E-05
    53 OT DIIS     0.80E-01   12.8     0.00000172     -6882.7817411940 -3.95E-07
    54 OT SD       0.80E-01   12.9     0.00000104     -6882.7817418501 -6.56E-07
    55 OT DIIS     0.80E-01   12.6     0.00000205     -6882.7817421978 -3.48E-07
    56 OT DIIS     0.80E-01   12.6     0.00000102     -6882.7817426845 -4.87E-07
    57 OT DIIS     0.80E-01   12.7     0.00000104     -6882.7817437406 -1.06E-06
    58 OT DIIS     0.80E-01   13.3     0.00000103     -6882.7817481102 -4.37E-06
    59 OT SD       0.80E-01   13.3     0.00000123     -6882.7817495915 -1.48E-06
    60 OT DIIS     0.80E-01   13.0     0.00000471     -6882.7817492739  3.18E-07
    61 OT SD       0.80E-01   13.4     0.00000102     -6882.7817560076 -6.73E-06
    62 OT DIIS     0.80E-01   13.1     0.00000256     -6882.7817561767 -1.69E-07
    63 OT DIIS     0.80E-01   13.4     0.00000105     -6882.7817593797 -3.20E-06
    64 OT DIIS     0.80E-01   13.4     0.00000101     -6882.7817649729 -5.59E-06
    65 OT DIIS     0.80E-01   13.3     0.00000089     -6882.7817662878 -1.31E-06

  *** SCF run converged in    65 steps ***


  Electronic density on regular grids:      -2432.0000000061       -0.0000000061
  Core density on regular grids:             2431.9999999988       -0.0000000012
  Total charge density on r-space grids:       -0.0000000072
  Total charge density g-space grids:          -0.0000000072

  Overlap energy of the core charge distribution:               0.03711640769283
  Self energy of the core charge distribution:             -16017.19408509233290
  Core Hamiltonian energy:                                   4346.91955225156016
  Hartree energy:                                            6119.34702260273752
  Exchange-correlation energy:                              -1330.10546990629859
  Dispersion energy:                                           -1.78590255118337

  Total energy:                                             -6882.78176628782421

  outer SCF iter =    4 RMS gradient =   0.89E-06 energy =      -6882.7817662878
  outer SCF loop converged in   4 iterations or  365 steps


 ENERGY| Total FORCE_EVAL ( QS ) energy [hartree]          -6882.781767144946571

 Number of electrons:                                                       2432
 Number of occupied orbitals:                                               1216
 Number of molecular orbitals:                                              1216

 Number of orbital functions:                                               4983
 Number of independent orbital functions:                                   4983

 Extrapolation method: ASPC


 SCF WAVEFUNCTION OPTIMIZATION

  ----------------------------------- OT ---------------------------------------
  Minimizer      : DIIS                : direct inversion
                                         in the iterative subspace
                                         using   7 DIIS vectors
                                         safer DIIS on
  Preconditioner : FULL_SINGLE_INVERSE : inversion of 
                                         H + eS - 2*(Sc)(c^T*H*c+const)(Sc)^T
  Precond_solver : DEFAULT
  stepsize       :    0.08000000                  energy_gap     :    0.08000000
  eps_taylor     :   0.10000E-15                  max_taylor     :             4
  ----------------------------------- OT ---------------------------------------

  Step     Update method      Time    Convergence         Total energy    Change
  ------------------------------------------------------------------------------
     1 OT DIIS     0.80E-01   20.0     0.00454677     -6891.9417135031 -6.89E+03
     2 OT DIIS     0.80E-01   13.1     0.00286957     -6899.7927418197 -7.85E+00
     3 OT DIIS     0.80E-01   13.1     0.00195564     -6904.2442750278 -4.45E+00
     4 OT DIIS     0.80E-01   13.1     0.00156084     -6905.7678119745 -1.52E+00
     5 OT DIIS     0.80E-01   13.0     0.00114145     -6906.5764499551 -8.09E-01
     6 OT DIIS     0.80E-01   13.3     0.00090463     -6906.9753197917 -3.99E-01
     7 OT DIIS     0.80E-01   13.6     0.00093142     -6907.2284880951 -2.53E-01
     8 OT DIIS     0.80E-01   13.5     0.00082292     -6907.4150293422 -1.87E-01
     9 OT DIIS     0.80E-01   13.3     0.00076779     -6907.5050889999 -9.01E-02
    10 OT DIIS     0.80E-01   13.2     0.00078278     -6907.5055391764 -4.50E-04
    11 OT DIIS     0.80E-01   12.9     0.00078143     -6907.5218670898 -1.63E-02
    12 OT DIIS     0.80E-01   13.6     0.00078334     -6907.5267681230 -4.90E-03
    13 OT DIIS     0.80E-01   13.4     0.00080023     -6907.5339218212 -7.15E-03
    14 OT DIIS     0.80E-01   13.0     0.00080258     -6907.6684370808 -1.35E-01
    15 OT DIIS     0.80E-01   12.7     0.00072714     -6907.7536572342 -8.52E-02
    16 OT DIIS     0.80E-01   13.3     0.00069272     -6907.8275219834 -7.39E-02
    17 OT DIIS     0.80E-01   13.2     0.00075330     -6907.9787561869 -1.51E-01
    18 OT DIIS     0.80E-01   13.5     0.00066288     -6908.0359762162 -5.72E-02
    19 OT DIIS     0.80E-01   13.4     0.00053076     -6908.1725774934 -1.37E-01
    20 OT DIIS     0.80E-01   13.2     0.00085868     -6908.1487916447  2.38E-02
    21 OT DIIS     0.80E-01   13.5     0.00075668     -6908.2015358965 -5.27E-02
    22 OT DIIS     0.80E-01   13.6     0.00073494     -6908.2281522255 -2.66E-02
    23 OT DIIS     0.80E-01   13.8     0.00082522     -6908.2793163208 -5.12E-02
    24 OT DIIS     0.80E-01   13.4     0.00047310     -6908.3839544492 -1.05E-01
    25 OT DIIS     0.80E-01   13.4     0.00043035     -6908.4243049257 -4.04E-02
    26 OT DIIS     0.80E-01   13.3     0.00037502     -6908.4721825351 -4.79E-02
    27 OT DIIS     0.80E-01   13.4     0.00037376     -6908.4793720489 -7.19E-03
    28 OT DIIS     0.80E-01   13.1     0.00041582     -6908.5401776612 -6.08E-02
    29 OT DIIS     0.80E-01   13.1     0.00033251     -6908.5302119194  9.97E-03
    30 OT DIIS     0.80E-01   13.5     0.00029330     -6908.6077662883 -7.76E-02
    31 OT DIIS     0.80E-01   14.0     0.00029545     -6908.6494778908 -4.17E-02
    32 OT DIIS     0.80E-01   13.7     0.00028754     -6908.6809699309 -3.15E-02
    33 OT DIIS     0.80E-01   13.7     0.00028799     -6908.7092426892 -2.83E-02
    34 OT DIIS     0.80E-01   13.5     0.00027764     -6908.7559777173 -4.67E-02
    35 OT DIIS     0.80E-01   13.0     0.00029341     -6908.7576697200 -1.69E-03
    36 OT SD       0.80E-01   13.8     0.00028019     -6908.7883871997 -3.07E-02
    37 OT SD       0.80E-01   13.1     0.00029064     -6908.8244976591 -3.61E-02
    38 OT SD       0.80E-01   13.1     0.00036724     -6908.8573045264 -3.28E-02
    39 OT SD       0.80E-01   13.5     0.00070238     -6908.8698982396 -1.26E-02
    40 OT DIIS     0.80E-01   13.3     0.00171756     -6908.7400473279  1.30E-01
    41 OT DIIS     0.80E-01   12.9     0.00029481     -6908.8344454271 -9.44E-02
    42 OT SD       0.80E-01   13.2     0.00027553     -6908.8608744601 -2.64E-02
    43 OT SD       0.80E-01   13.1     0.00028938     -6908.8964533698 -3.56E-02
    44 OT SD       0.80E-01   13.0     0.00036904     -6908.9293216940 -3.29E-02
    45 OT SD       0.80E-01   13.3     0.00070010     -6908.9421809117 -1.29E-02
    46 OT DIIS     0.80E-01   13.2     0.00160942     -6908.8257249443  1.16E-01
    47 OT SD       0.80E-01   13.6     0.00027478     -6908.9043465356 -7.86E-02
    48 OT SD       0.80E-01   14.0     0.00028287     -6908.9401016485 -3.58E-02
    49 OT SD       0.80E-01   13.2     0.00032367     -6908.9747068238 -3.46E-02
    50 OT SD       0.80E-01   13.6     0.00049803     -6909.0012799003 -2.66E-02
    51 OT DIIS     0.80E-01   13.5     0.00103937     -6908.9790492268  2.22E-02
    52 OT DIIS     0.80E-01   13.5     0.00030518     -6908.9230584015  5.60E-02
    53 OT DIIS     0.80E-01   13.1     0.00028568     -6908.9552510284 -3.22E-02
    54 OT DIIS     0.80E-01   13.6     0.00028555     -6908.9602567148 -5.01E-03
    55 OT DIIS     0.80E-01   13.7     0.00027555     -6908.9744931485 -1.42E-02
    56 OT SD       0.80E-01   13.4     0.00028257     -6909.0104788395 -3.60E-02
    57 OT DIIS     0.80E-01   14.1     0.00035518     -6909.0424327663 -3.20E-02
    58 OT DIIS     0.80E-01   13.6     0.00026841     -6909.0710454932 -2.86E-02
    59 OT DIIS     0.80E-01   13.7     0.00026852     -6909.0889413759 -1.79E-02
    60 OT SD       0.80E-01   13.6     0.00027195     -6909.1076749523 -1.87E-02
    61 OT SD       0.80E-01   13.5     0.00027328     -6909.1425463266 -3.49E-02
    62 OT SD       0.80E-01   13.6     0.00029773     -6909.1754376929 -3.29E-02
    63 OT SD       0.80E-01   12.6     0.00042947     -6909.2013598445 -2.59E-02
    64 OT DIIS     0.80E-01   13.3     0.00088016     -6909.1908407325  1.05E-02
    65 OT DIIS     0.80E-01   13.4     0.00028957     -6909.2285734262 -3.77E-02
    66 OT DIIS     0.80E-01   13.4     0.00025463     -6909.2814876186 -5.29E-02
    67 OT DIIS     0.80E-01   13.6     0.00026598     -6909.3178233267 -3.63E-02
    68 OT DIIS     0.80E-01   13.0     0.00022197     -6909.3719776082 -5.42E-02
    69 OT DIIS     0.80E-01   13.3     0.00021109     -6909.4250109799 -5.30E-02
    70 OT DIIS     0.80E-01   13.5     0.00018894     -6909.4657368102 -4.07E-02
    71 OT DIIS     0.80E-01   13.3     0.00017417     -6909.4958973480 -3.02E-02
    72 OT DIIS     0.80E-01   13.6     0.00015399     -6909.5381068772 -4.22E-02
    73 OT DIIS     0.80E-01   13.0     0.00015126     -6909.5667249027 -2.86E-02
    74 OT DIIS     0.80E-01   13.5     0.00013972     -6909.5939820260 -2.73E-02
    75 OT DIIS     0.80E-01   13.1     0.00012827     -6909.6145571263 -2.06E-02
    76 OT DIIS     0.80E-01   13.7     0.00011935     -6909.6357226549 -2.12E-02
    77 OT DIIS     0.80E-01   13.3     0.00012115     -6909.6544786849 -1.88E-02
    78 OT DIIS     0.80E-01   13.2     0.00010505     -6909.6715844448 -1.71E-02
    79 OT DIIS     0.80E-01   13.3     0.00009805     -6909.6861989949 -1.46E-02
    80 OT DIIS     0.80E-01   13.4     0.00008485     -6909.6997705341 -1.36E-02
    81 OT DIIS     0.80E-01   13.1     0.00007912     -6909.7116226431 -1.19E-02
    82 OT DIIS     0.80E-01   13.8     0.00007353     -6909.7208272060 -9.20E-03
    83 OT DIIS     0.80E-01   13.1     0.00006957     -6909.7250476229 -4.22E-03
    84 OT DIIS     0.80E-01   13.4     0.00006105     -6909.7302418678 -5.19E-03
    85 OT DIIS     0.80E-01   13.0     0.00006001     -6909.7341404950 -3.90E-03
    86 OT DIIS     0.80E-01   13.2     0.00005582     -6909.7376419264 -3.50E-03
    87 OT DIIS     0.80E-01   13.4     0.00005178     -6909.7420557568 -4.41E-03
    88 OT DIIS     0.80E-01   13.1     0.00004754     -6909.7445213988 -2.47E-03
    89 OT DIIS     0.80E-01   13.7     0.00004355     -6909.7472629148 -2.74E-03
    90 OT DIIS     0.80E-01   13.6     0.00004148     -6909.7490868216 -1.82E-03
    91 OT DIIS     0.80E-01   13.8     0.00004124     -6909.7508848908 -1.80E-03
    92 OT DIIS     0.80E-01   13.1     0.00003792     -6909.7530557843 -2.17E-03
    93 OT DIIS     0.80E-01   13.5     0.00003770     -6909.7550940660 -2.04E-03
    94 OT DIIS     0.80E-01   13.8     0.00003483     -6909.7565620266 -1.47E-03
    95 OT DIIS     0.80E-01   13.3     0.00003240     -6909.7581217710 -1.56E-03
    96 OT DIIS     0.80E-01   13.2     0.00003057     -6909.7586932940 -5.72E-04
    97 OT DIIS     0.80E-01   13.6     0.00002930     -6909.7598534342 -1.16E-03
    98 OT DIIS     0.80E-01   13.2     0.00002877     -6909.7608272472 -9.74E-04
    99 OT DIIS     0.80E-01   13.5     0.00002845     -6909.7619249276 -1.10E-03
   100 OT DIIS     0.80E-01   13.7     0.00002721     -6909.7628877878 -9.63E-04

  Leaving inner SCF loop after reaching   100 steps.


  Electronic density on regular grids:      -2431.9999999954        0.0000000046
  Core density on regular grids:             2431.9999999988       -0.0000000012
  Total charge density on r-space grids:        0.0000000034
  Total charge density g-space grids:           0.0000000034

  Overlap energy of the core charge distribution:               0.00099671707748
  Self energy of the core charge distribution:             -16017.19408509233290
  Core Hamiltonian energy:                                   4288.51472789310174
  Hartree energy:                                            6143.80327735892206
  Exchange-correlation energy:                              -1323.09529076347667
  Dispersion energy:                                           -1.79251390111345

  Total energy:                                             -6909.76288778782146

  outer SCF iter =    1 RMS gradient =   0.27E-04 energy =      -6909.7628877878

  ----------------------------------- OT ---------------------------------------
  Minimizer      : DIIS                : direct inversion
                                         in the iterative subspace
                                         using   7 DIIS vectors
                                         safer DIIS on
  Preconditioner : FULL_SINGLE_INVERSE : inversion of 
                                         H + eS - 2*(Sc)(c^T*H*c+const)(Sc)^T
  Precond_solver : DEFAULT
  stepsize       :    0.08000000                  energy_gap     :    0.08000000
  eps_taylor     :   0.10000E-15                  max_taylor     :             4
  ----------------------------------- OT ---------------------------------------

  Step     Update method      Time    Convergence         Total energy    Change
  ------------------------------------------------------------------------------
     1 OT DIIS     0.80E-01   38.2     0.00007930     -6909.7637309072 -8.43E-04
     2 OT DIIS     0.80E-01   12.6     0.00007133     -6909.7663970778 -2.67E-03
     3 OT DIIS     0.80E-01   12.2     0.00011803     -6909.7676158195 -1.22E-03
     4 OT DIIS     0.80E-01   12.9     0.00007617     -6909.7699995071 -2.38E-03
     5 OT DIIS     0.80E-01   12.9     0.00006152     -6909.7716068119 -1.61E-03
     6 OT DIIS     0.80E-01   13.3     0.00006010     -6909.7725133426 -9.07E-04
     7 OT DIIS     0.80E-01   13.1     0.00005640     -6909.7735637686 -1.05E-03
     8 OT DIIS     0.80E-01   13.1     0.00005433     -6909.7746864082 -1.12E-03
     9 OT DIIS     0.80E-01   13.0     0.00005255     -6909.7752261683 -5.40E-04
    10 OT DIIS     0.80E-01   13.3     0.00005205     -6909.7764823361 -1.26E-03
    11 OT DIIS     0.80E-01   12.9     0.00005170     -6909.7776086160 -1.13E-03
    12 OT DIIS     0.80E-01   13.1     0.00005147     -6909.7785777420 -9.69E-04
    13 OT DIIS     0.80E-01   13.4     0.00005144     -6909.7794246268 -8.47E-04
    14 OT DIIS     0.80E-01   13.6     0.00005100     -6909.7801229132 -6.98E-04
    15 OT DIIS     0.80E-01   13.6     0.00005092     -6909.7808691496 -7.46E-04
    16 OT DIIS     0.80E-01   13.5     0.00005091     -6909.7817917810 -9.23E-04
    17 OT DIIS     0.80E-01   12.8     0.00005088     -6909.7821929199 -4.01E-04
    18 OT DIIS     0.80E-01   13.7     0.00005084     -6909.7831161419 -9.23E-04
    19 OT DIIS     0.80E-01   13.4     0.00005080     -6909.7841174603 -1.00E-03
    20 OT DIIS     0.80E-01   13.4     0.00005098     -6909.7853846941 -1.27E-03
    21 OT DIIS     0.80E-01   13.8     0.00005193     -6909.7866300403 -1.25E-03
    22 OT DIIS     0.80E-01   13.6     0.00005088     -6909.7880334552 -1.40E-03
    23 OT DIIS     0.80E-01   13.8     0.00005058     -6909.7896870732 -1.65E-03
    24 OT DIIS     0.80E-01   13.5     0.00005150     -6909.7917408698 -2.05E-03
    25 OT DIIS     0.80E-01   13.4     0.00005197     -6909.7932157808 -1.47E-03
    26 OT DIIS     0.80E-01   13.1     0.00005109     -6909.7955035454 -2.29E-03
    27 OT DIIS     0.80E-01   13.1     0.00004941     -6909.7974550874 -1.95E-03
    28 OT DIIS     0.80E-01   13.5     0.00004853     -6909.7990722028 -1.62E-03
    29 OT DIIS     0.80E-01   13.5     0.00004931     -6909.8007101477 -1.64E-03
    30 OT DIIS     0.80E-01   13.5     0.00004783     -6909.8025634545 -1.85E-03
    31 OT DIIS     0.80E-01   13.0     0.00004472     -6909.8042058398 -1.64E-03
    32 OT DIIS     0.80E-01   13.8     0.00004312     -6909.8056551425 -1.45E-03
    33 OT DIIS     0.80E-01   12.8     0.00004119     -6909.8066470092 -9.92E-04
    34 OT DIIS     0.80E-01   13.3     0.00004129     -6909.8078531899 -1.21E-03
    35 OT DIIS     0.80E-01   13.5     0.00004097     -6909.8092174918 -1.36E-03
    36 OT DIIS     0.80E-01   13.1     0.00003930     -6909.8105818155 -1.36E-03
    37 OT DIIS     0.80E-01   13.8     0.00003710     -6909.8117081842 -1.13E-03
    38 OT DIIS     0.80E-01   13.3     0.00003524     -6909.8126096243 -9.01E-04
    39 OT DIIS     0.80E-01   13.4     0.00003571     -6909.8136266806 -1.02E-03
    40 OT DIIS     0.80E-01   13.1     0.00003722     -6909.8149074418 -1.28E-03
    41 OT DIIS     0.80E-01   13.1     0.00003550     -6909.8160509945 -1.14E-03
    42 OT DIIS     0.80E-01   13.5     0.00003466     -6909.8170656522 -1.01E-03
    43 OT DIIS     0.80E-01   13.6     0.00003078     -6909.8177501228 -6.84E-04
    44 OT DIIS     0.80E-01   13.5     0.00003051     -6909.8183220274 -5.72E-04
    45 OT DIIS     0.80E-01   13.6     0.00003248     -6909.8193282059 -1.01E-03
    46 OT DIIS     0.80E-01   13.1     0.00003152     -6909.8203922236 -1.06E-03
    47 OT DIIS     0.80E-01   13.4     0.00002940     -6909.8211101331 -7.18E-04
    48 OT DIIS     0.80E-01   13.3     0.00002583     -6909.8215630123 -4.53E-04
    49 OT DIIS     0.80E-01   13.2     0.00002547     -6909.8218416281 -2.79E-04
    50 OT DIIS     0.80E-01   13.5     0.00002945     -6909.8222688922 -4.27E-04
    51 OT DIIS     0.80E-01   13.4     0.00002594     -6909.8228052793 -5.36E-04
    52 OT DIIS     0.80E-01   13.3     0.00002367     -6909.8235059142 -7.01E-04
    53 OT DIIS     0.80E-01   13.1     0.00002128     -6909.8239761063 -4.70E-04
    54 OT DIIS     0.80E-01   13.4     0.00002215     -6909.8243477403 -3.72E-04
    55 OT DIIS     0.80E-01   13.5     0.00002543     -6909.8244326927 -8.50E-05
    56 OT DIIS     0.80E-01   13.2     0.00002259     -6909.8246450271 -2.12E-04
    57 OT DIIS     0.80E-01   12.7     0.00002050     -6909.8252834703 -6.38E-04
    58 OT DIIS     0.80E-01   14.0     0.00001932     -6909.8257676411 -4.84E-04
    59 OT DIIS     0.80E-01   13.4     0.00001735     -6909.8260315902 -2.64E-04
    60 OT DIIS     0.80E-01   13.7     0.00002093     -6909.8262432882 -2.12E-04
    61 OT DIIS     0.80E-01   13.7     0.00001971     -6909.8263910334 -1.48E-04
    62 OT DIIS     0.80E-01   13.2     0.00001770     -6909.8265622637 -1.71E-04
    63 OT DIIS     0.80E-01   13.4     0.00001672     -6909.8269952025 -4.33E-04
    64 OT DIIS     0.80E-01   13.5     0.00001580     -6909.8273243370 -3.29E-04
    65 OT SD       0.80E-01   12.9     0.00001536     -6909.8275541890 -2.30E-04
    66 OT DIIS     0.80E-01   13.1     0.00003328     -6909.8276063215 -5.21E-05
    67 OT DIIS     0.80E-01   13.0     0.00001441     -6909.8277834940 -1.77E-04
    68 OT DIIS     0.80E-01   13.2     0.00001413     -6909.8281069790 -3.23E-04
    69 OT DIIS     0.80E-01   13.3     0.00001410     -6909.8284312493 -3.24E-04
    70 OT DIIS     0.80E-01   13.2     0.00001447     -6909.8287128593 -2.82E-04
    71 OT DIIS     0.80E-01   13.1     0.00001550     -6909.8287153391 -2.48E-06
    72 OT DIIS     0.80E-01   13.7     0.00001493     -6909.8287039086  1.14E-05
    73 OT DIIS     0.80E-01   13.3     0.00001352     -6909.8289565501 -2.53E-04
    74 OT DIIS     0.80E-01   13.3     0.00001254     -6909.8292775297 -3.21E-04
    75 OT SD       0.80E-01   13.2     0.00001219     -6909.8295982822 -3.21E-04
    76 OT DIIS     0.80E-01   13.3     0.00001743     -6909.8296512932 -5.30E-05
    77 OT DIIS     0.80E-01   13.2     0.00001246     -6909.8297735384 -1.22E-04
    78 OT DIIS     0.80E-01   13.7     0.00001138     -6909.8300022809 -2.29E-04
    79 OT DIIS     0.80E-01   13.0     0.00001187     -6909.8301268527 -1.25E-04
    80 OT DIIS     0.80E-01   13.1     0.00001139     -6909.8304772241 -3.50E-04
    81 OT DIIS     0.80E-01   13.2     0.00001105     -6909.8307091900 -2.32E-04
    82 OT SD       0.80E-01   13.1     0.00001094     -6909.8308233100 -1.14E-04
    83 OT DIIS     0.80E-01   13.5     0.00001972     -6909.8308582935 -3.50E-05
    84 OT DIIS     0.80E-01   13.7     0.00000997     -6909.8309902141 -1.32E-04
    85 OT DIIS     0.80E-01   13.1     0.00001032     -6909.8311050068 -1.15E-04
    86 OT DIIS     0.80E-01   13.5     0.00001037     -6909.8312087306 -1.04E-04
    87 OT DIIS     0.80E-01   14.1     0.00000966     -6909.8313348309 -1.26E-04
    88 OT DIIS     0.80E-01   13.6     0.00000954     -6909.8316198568 -2.85E-04
    89 OT SD       0.80E-01   13.3     0.00000957     -6909.8318412455 -2.21E-04
    90 OT DIIS     0.80E-01   13.1     0.00001570     -6909.8318686953 -2.74E-05
    91 OT DIIS     0.80E-01   13.4     0.00001055     -6909.8319259970 -5.73E-05
    92 OT DIIS     0.80E-01   13.6     0.00001006     -6909.8320521933 -1.26E-04
    93 OT DIIS     0.80E-01   13.1     0.00000883     -6909.8322235238 -1.71E-04
    94 OT DIIS     0.80E-01   13.5     0.00000896     -6909.8323326493 -1.09E-04
    95 OT DIIS     0.80E-01   13.5     0.00000826     -6909.8325144101 -1.82E-04
    96 OT DIIS     0.80E-01   13.3     0.00000841     -6909.8326575136 -1.43E-04
    97 OT DIIS     0.80E-01   13.1     0.00000829     -6909.8326794873 -2.20E-05
    98 OT DIIS     0.80E-01   13.5     0.00000860     -6909.8329085552 -2.29E-04
    99 OT DIIS     0.80E-01   12.9     0.00001066     -6909.8329931897 -8.46E-05
   100 OT DIIS     0.80E-01   13.3     0.00000816     -6909.8330850827 -9.19E-05

  Leaving inner SCF loop after reaching   100 steps.


  Electronic density on regular grids:      -2431.9999999955        0.0000000045
  Core density on regular grids:             2431.9999999988       -0.0000000012
  Total charge density on r-space grids:        0.0000000033
  Total charge density g-space grids:           0.0000000033

  Overlap energy of the core charge distribution:               0.00099671707748
  Self energy of the core charge distribution:             -16017.19408509233290
  Core Hamiltonian energy:                                   4288.00229932601633
  Hartree energy:                                            6144.13812246823727
  Exchange-correlation energy:                              -1322.98790460062105
  Dispersion energy:                                           -1.79251390111345

  Total energy:                                             -6909.83308508273694

  outer SCF iter =    2 RMS gradient =   0.82E-05 energy =      -6909.8330850827

  ----------------------------------- OT ---------------------------------------
  Minimizer      : DIIS                : direct inversion
                                         in the iterative subspace
                                         using   7 DIIS vectors
                                         safer DIIS on
  Preconditioner : FULL_SINGLE_INVERSE : inversion of 
                                         H + eS - 2*(Sc)(c^T*H*c+const)(Sc)^T
  Precond_solver : DEFAULT
  stepsize       :    0.08000000                  energy_gap     :    0.08000000
  eps_taylor     :   0.10000E-15                  max_taylor     :             4
  ----------------------------------- OT ---------------------------------------

  Step     Update method      Time    Convergence         Total energy    Change
  ------------------------------------------------------------------------------
     1 OT DIIS     0.80E-01   36.5     0.00001028     -6909.8332249473 -1.40E-04
     2 OT DIIS     0.80E-01   12.4     0.00002314     -6909.8332458921 -2.09E-05
     3 OT DIIS     0.80E-01   12.5     0.00000926     -6909.8332701406 -2.42E-05
     4 OT DIIS     0.80E-01   12.9     0.00000942     -6909.8332928843 -2.27E-05
     5 OT DIIS     0.80E-01   12.1     0.00000903     -6909.8333208393 -2.80E-05
     6 OT DIIS     0.80E-01   12.7     0.00000863     -6909.8333801370 -5.93E-05
     7 OT DIIS     0.80E-01   13.0     0.00000873     -6909.8334505927 -7.05E-05
     8 OT DIIS     0.80E-01   13.4     0.00000784     -6909.8335208748 -7.03E-05
     9 OT DIIS     0.80E-01   12.5     0.00000741     -6909.8335685989 -4.77E-05
    10 OT DIIS     0.80E-01   12.8     0.00000685     -6909.8336176687 -4.91E-05
    11 OT DIIS     0.80E-01   13.3     0.00000663     -6909.8336651227 -4.75E-05
    12 OT DIIS     0.80E-01   12.8     0.00000679     -6909.8337251413 -6.00E-05
    13 OT DIIS     0.80E-01   13.3     0.00000662     -6909.8337968701 -7.17E-05
    14 OT DIIS     0.80E-01   13.0     0.00000589     -6909.8338642061 -6.73E-05
    15 OT DIIS     0.80E-01   12.7     0.00000535     -6909.8339082892 -4.41E-05
    16 OT DIIS     0.80E-01   12.6     0.00000550     -6909.8339419875 -3.37E-05
    17 OT DIIS     0.80E-01   12.9     0.00000594     -6909.8339683850 -2.64E-05
    18 OT DIIS     0.80E-01   13.2     0.00000532     -6909.8339997648 -3.14E-05
    19 OT DIIS     0.80E-01   13.2     0.00000459     -6909.8340361146 -3.63E-05
    20 OT DIIS     0.80E-01   12.9     0.00000427     -6909.8340650243 -2.89E-05
    21 OT DIIS     0.80E-01   12.6     0.00000423     -6909.8340804989 -1.55E-05
    22 OT DIIS     0.80E-01   13.1     0.00000430     -6909.8340959505 -1.55E-05
    23 OT DIIS     0.80E-01   13.1     0.00000423     -6909.8341152335 -1.93E-05
    24 OT DIIS     0.80E-01   12.8     0.00000419     -6909.8341402945 -2.51E-05
    25 OT DIIS     0.80E-01   12.4     0.00000411     -6909.8341643591 -2.41E-05
    26 OT DIIS     0.80E-01   12.3     0.00000383     -6909.8341780314 -1.37E-05
    27 OT DIIS     0.80E-01   12.5     0.00000348     -6909.8341925092 -1.45E-05
    28 OT DIIS     0.80E-01   13.0     0.00000359     -6909.8342087430 -1.62E-05
    29 OT DIIS     0.80E-01   12.8     0.00000367     -6909.8342246469 -1.59E-05
    30 OT DIIS     0.80E-01   12.2     0.00000368     -6909.8342463373 -2.17E-05
    31 OT DIIS     0.80E-01   12.8     0.00000340     -6909.8342633076 -1.70E-05
    32 OT DIIS     0.80E-01   12.6     0.00000306     -6909.8342744809 -1.12E-05
    33 OT DIIS     0.80E-01   12.2     0.00000316     -6909.8342824020 -7.92E-06
    34 OT DIIS     0.80E-01   12.8     0.00000357     -6909.8342901553 -7.75E-06
    35 OT DIIS     0.80E-01   12.5     0.00000323     -6909.8343007958 -1.06E-05
    36 OT DIIS     0.80E-01   13.2     0.00000303     -6909.8343176276 -1.68E-05
    37 OT DIIS     0.80E-01   13.5     0.00000269     -6909.8343320202 -1.44E-05
    38 OT DIIS     0.80E-01   13.4     0.00000272     -6909.8343382308 -6.21E-06
    39 OT DIIS     0.80E-01   13.4     0.00000356     -6909.8343389914 -7.61E-07
    40 OT DIIS     0.80E-01   13.3     0.00000278     -6909.8343444034 -5.41E-06
    41 OT DIIS     0.80E-01   13.5     0.00000277     -6909.8343554456 -1.10E-05
    42 OT DIIS     0.80E-01   13.0     0.00000257     -6909.8343634503 -8.00E-06
    43 OT DIIS     0.80E-01   12.9     0.00000265     -6909.8343755373 -1.21E-05
    44 OT DIIS     0.80E-01   13.3     0.00000233     -6909.8343828484 -7.31E-06
    45 OT DIIS     0.80E-01   13.5     0.00000267     -6909.8343830097 -1.61E-07
    46 OT DIIS     0.80E-01   13.6     0.00000228     -6909.8343899507 -6.94E-06
    47 OT DIIS     0.80E-01   13.2     0.00000251     -6909.8343978127 -7.86E-06
    48 OT DIIS     0.80E-01   13.2     0.00000237     -6909.8344019852 -4.17E-06
    49 OT DIIS     0.80E-01   13.2     0.00000211     -6909.8344048464 -2.86E-06
    50 OT DIIS     0.80E-01   13.2     0.00000217     -6909.8344121322 -7.29E-06
    51 OT SD       0.80E-01   14.0     0.00000273     -6909.8344135103 -1.38E-06
    52 OT DIIS     0.80E-01   14.0     0.00001116     -6909.8344106051  2.91E-06
    53 OT DIIS     0.80E-01   13.6     0.00000198     -6909.8344228308 -1.22E-05
    54 OT DIIS     0.80E-01   13.7     0.00000227     -6909.8344241379 -1.31E-06
    55 OT SD       0.80E-01   13.6     0.00000206     -6909.8344282416 -4.10E-06
    56 OT DIIS     0.80E-01   13.2     0.00000599     -6909.8344282473 -5.67E-09
    57 OT DIIS     0.80E-01   13.3     0.00000176     -6909.8344397388 -1.15E-05
    58 OT DIIS     0.80E-01   13.3     0.00000179     -6909.8344401342 -3.95E-07
    59 OT DIIS     0.80E-01   13.4     0.00000187     -6909.8344400980  3.63E-08
    60 OT SD       0.80E-01   13.6     0.00000163     -6909.8344486978 -8.60E-06
    61 OT DIIS     0.80E-01   13.2     0.00000296     -6909.8344495655 -8.68E-07
    62 OT DIIS     0.80E-01   12.9     0.00000159     -6909.8344541057 -4.54E-06
    63 OT DIIS     0.80E-01   13.3     0.00000163     -6909.8344598866 -5.78E-06
    64 OT DIIS     0.80E-01   13.4     0.00000164     -6909.8344655810 -5.69E-06
    65 OT DIIS     0.80E-01   12.6     0.00000185     -6909.8344739289 -8.35E-06
    66 OT SD       0.80E-01   13.7     0.00000213     -6909.8344738717  5.72E-08
    67 OT DIIS     0.80E-01   13.2     0.00000886     -6909.8344717973  2.07E-06
    68 OT DIIS     0.80E-01   13.4     0.00000156     -6909.8344852979 -1.35E-05
    69 OT DIIS     0.80E-01   13.4     0.00000149     -6909.8344889575 -3.66E-06
    70 OT SD       0.80E-01   13.2     0.00000136     -6909.8344916420 -2.68E-06
    71 OT DIIS     0.80E-01   13.3     0.00000266     -6909.8344920599 -4.18E-07
    72 OT DIIS     0.80E-01   13.0     0.00000136     -6909.8344924110 -3.51E-07
    73 OT DIIS     0.80E-01   12.9     0.00000131     -6909.8344954811 -3.07E-06
    74 OT DIIS     0.80E-01   13.4     0.00000117     -6909.8344960333 -5.52E-07
    75 OT DIIS     0.80E-01   13.1     0.00000117     -6909.8344995794 -3.55E-06
    76 OT DIIS     0.80E-01   12.9     0.00000118     -6909.8345043273 -4.75E-06
    77 OT SD       0.80E-01   12.8     0.00000118     -6909.8345068732 -2.55E-06
    78 OT DIIS     0.80E-01   13.5     0.00000310     -6909.8345069709 -9.77E-08
    79 OT DIIS     0.80E-01   13.5     0.00000114     -6909.8345108185 -3.85E-06
    80 OT DIIS     0.80E-01   13.4     0.00000100     -6909.8345123061 -1.49E-06
    81 OT DIIS     0.80E-01   12.8     0.00000101     -6909.8345137352 -1.43E-06
    82 OT DIIS     0.80E-01   12.6     0.00000092     -6909.8345150117 -1.28E-06

  *** SCF run converged in    82 steps ***


  Electronic density on regular grids:      -2431.9999999955        0.0000000045
  Core density on regular grids:             2431.9999999988       -0.0000000012
  Total charge density on r-space grids:        0.0000000033
  Total charge density g-space grids:           0.0000000033

  Overlap energy of the core charge distribution:               0.00099671707748
  Self energy of the core charge distribution:             -16017.19408509233290
  Core Hamiltonian energy:                                   4287.99198370934937
  Hartree energy:                                            6144.14330403475924
  Exchange-correlation energy:                              -1322.98420047945820
  Dispersion energy:                                           -1.79251390111345

  Total energy:                                             -6909.83451501171839

  outer SCF iter =    3 RMS gradient =   0.92E-06 energy =      -6909.8345150117
  outer SCF loop converged in   3 iterations or  282 steps


 ENERGY| Total FORCE_EVAL ( QS ) energy [hartree]          -6909.834516719064595

 OPT| **************************************************************************
 OPT| Step number                                                              1
 OPT| Optimization method                                                  LBFGS
 OPT| Total energy [hartree]                                    -6909.8345167191
 OPT| Effective energy change [hartree]                           -27.0527495741
 OPT| Decrease in energy                                                     YES
 OPT| Used time [s]                                                     8762.918
 OPT|
 OPT| Maximum step size                                             0.4724315332
 OPT| Convergence limit for maximum step size                       0.0030000000
 OPT| Maximum step size is converged                                          NO
 OPT|
 OPT| RMS step size                                                 0.0912214941
 OPT| Convergence limit for RMS step size                           0.0015000000
 OPT| RMS step size is converged                                              NO
 OPT|
 OPT| Maximum gradient                                              0.2074260918
 OPT| Convergence limit for maximum gradient                        0.0010000000
 OPT| Maximum gradient is converged                                           NO
 OPT|
 OPT| RMS gradient                                                  0.0176784972
 OPT| Convergence limit for RMS gradient                            0.0005000000
 OPT| RMS gradient is converged                                               NO
 OPT| **************************************************************************
 OPT| Estimated peak process memory after this step [MiB]                  15617

 --------------------------
 OPTIMIZATION STEP:      2
 --------------------------

 Number of electrons:                                                       2432
 Number of occupied orbitals:                                               1216
[...]
    28 OT SD       0.80E-01   12.2     0.00000146     -6918.6516002782 -8.95E-07
    29 OT SD       0.80E-01   12.7     0.00000299     -6918.6516009156 -6.37E-07
    30 OT DIIS     0.80E-01   12.3     0.00001392     -6918.6515946354  6.28E-06
    31 OT SD       0.80E-01   12.4     0.00000137     -6918.6515981531 -3.52E-06
    32 OT SD       0.80E-01   12.2     0.00000137     -6918.6515990582 -9.05E-07
    33 OT SD       0.80E-01   12.5     0.00000139     -6918.6515999608 -9.03E-07
    34 OT SD       0.80E-01   11.9     0.00000186     -6918.6516008052 -8.44E-07
    35 OT DIIS     0.80E-01   11.8     0.00000654     -6918.6516001586  6.47E-07
    36 OT SD       0.80E-01   12.2     0.00000137     -6918.6515986138  1.54E-06
    37 OT SD       0.80E-01   12.0     0.00000137     -6918.6515995189 -9.05E-07
    38 OT SD       0.80E-01   12.1     0.00000139     -6918.6516004217 -9.03E-07
    39 OT SD       0.80E-01   12.3     0.00000187     -6918.6516012649 -8.43E-07
    40 OT SD       0.80E-01   12.2     0.00000685     -6918.6516004920  7.73E-07
    41 OT DIIS     0.80E-01   12.8     0.00003580     -6918.6515542992  4.62E-05
    42 OT SD       0.80E-01   12.4     0.00000137     -6918.6515977395 -4.34E-05
    43 OT SD       0.80E-01   11.8     0.00000138     -6918.6515986430 -9.04E-07
    44 OT SD       0.80E-01   12.2     0.00000166     -6918.6515995145 -8.71E-07
    45 OT SD       0.80E-01   11.9     0.00000499     -6918.6515995512 -3.66E-08
    46 OT DIIS     0.80E-01   12.4     0.00002524     -6918.6515768112  2.27E-05
    47 OT SD       0.80E-01   12.2     0.00000137     -6918.6515996385 -2.28E-05
    48 OT SD       0.80E-01   12.2     0.00000137     -6918.6516005435 -9.05E-07
    49 OT SD       0.80E-01   12.4     0.00000137     -6918.6516014484 -9.05E-07
    50 OT SD       0.80E-01   12.2     0.00000143     -6918.6516023471 -8.99E-07
    51 OT SD       0.80E-01   12.1     0.00000247     -6918.6516030909 -7.44E-07
    52 OT DIIS     0.80E-01   12.3     0.00001079     -6918.6515997141  3.38E-06
    53 OT SD       0.80E-01   12.1     0.00000137     -6918.6515961471  3.57E-06
    54 OT SD       0.80E-01   12.1     0.00000141     -6918.6515970459 -8.99E-07
    55 OT SD       0.80E-01   12.1     0.00000208     -6918.6515978477 -8.02E-07
    56 OT SD       0.80E-01   12.0     0.00000751     -6918.6515965771  1.27E-06
    57 OT DIIS     0.80E-01   12.2     0.00003634     -6918.6515463879  5.02E-05
    58 OT DIIS     0.80E-01   12.5     0.00000137     -6918.6515986326 -5.22E-05
    59 OT DIIS     0.80E-01   12.5     0.00000137     -6918.6515993130 -6.80E-07
    60 OT SD       0.80E-01   12.2     0.00000137     -6918.6516001104 -7.97E-07
    61 OT SD       0.80E-01   12.2     0.00000137     -6918.6516010144 -9.04E-07
    62 OT SD       0.80E-01   12.1     0.00000148     -6918.6516019067 -8.92E-07
    63 OT SD       0.80E-01   12.3     0.00000332     -6918.6516024750 -5.68E-07
    64 OT DIIS     0.80E-01   12.1     0.00001632     -6918.6515937171  8.76E-06
    65 OT SD       0.80E-01   11.8     0.00000137     -6918.6515957576 -2.04E-06
    66 OT SD       0.80E-01   12.5     0.00000137     -6918.6515966607 -9.03E-07
    67 OT SD       0.80E-01   11.9     0.00000157     -6918.6515975414 -8.81E-07
    68 OT SD       0.80E-01   12.3     0.00000421     -6918.6515978469 -3.06E-07
    69 OT DIIS     0.80E-01   12.0     0.00002079     -6918.6515826637  1.52E-05
    70 OT DIIS     0.80E-01   12.4     0.00000137     -6918.6515994820 -1.68E-05
    71 OT DIIS     0.80E-01   12.0     0.00000137     -6918.6516005277 -1.05E-06
    72 OT SD       0.80E-01   12.2     0.00000137     -6918.6516008338 -3.06E-07
    73 OT SD       0.80E-01   12.2     0.00000137     -6918.6516017376 -9.04E-07
    74 OT SD       0.80E-01   12.0     0.00000142     -6918.6516026362 -8.99E-07
    75 OT SD       0.80E-01   12.5     0.00000253     -6918.6516033772 -7.41E-07
    76 OT DIIS     0.80E-01   12.4     0.00001174     -6918.6515993703  4.01E-06
    77 OT SD       0.80E-01   12.2     0.00000137     -6918.6515948258  4.54E-06
    78 OT SD       0.80E-01   11.9     0.00000137     -6918.6515957284 -9.03E-07
    79 OT SD       0.80E-01   11.9     0.00000151     -6918.6515966158 -8.87E-07
    80 OT SD       0.80E-01   12.5     0.00000356     -6918.6515971169 -5.01E-07
    81 OT DIIS     0.80E-01   12.3     0.00001757     -6918.6515867606  1.04E-05
    82 OT DIIS     0.80E-01   12.2     0.00000137     -6918.6515942982 -7.54E-06
    83 OT DIIS     0.80E-01   11.9     0.00000137     -6918.6515987946 -4.50E-06
    84 OT SD       0.80E-01   12.1     0.00000137     -6918.6516016163 -2.82E-06
    85 OT DIIS     0.80E-01   12.3     0.00000142     -6918.6516025125 -8.96E-07
    86 OT SD       0.80E-01   12.2     0.00000137     -6918.6516045107 -2.00E-06
    87 OT SD       0.80E-01   12.0     0.00000139     -6918.6516054102 -9.00E-07
    88 OT SD       0.80E-01   12.4     0.00000187     -6918.6516062501 -8.40E-07
    89 OT DIIS     0.80E-01   12.3     0.00000667     -6918.6516055408  7.09E-07
    90 OT SD       0.80E-01   12.0     0.00000137     -6918.6516052986  2.42E-07
    91 OT SD       0.80E-01   12.2     0.00000138     -6918.6516061994 -9.01E-07
    92 OT SD       0.80E-01   11.9     0.00000174     -6918.6516070587 -8.59E-07
    93 OT SD       0.80E-01   12.1     0.00000587     -6918.6516067606  2.98E-07
    94 OT DIIS     0.80E-01   12.5     0.00003076     -6918.6515732007  3.36E-05
    95 OT SD       0.80E-01   12.0     0.00000138     -6918.6515929541 -1.98E-05
    96 OT SD       0.80E-01   12.2     0.00000146     -6918.6515938440 -8.90E-07
    97 OT SD       0.80E-01   12.1     0.00000283     -6918.6515945068 -6.63E-07
    98 OT DIIS     0.80E-01   12.0     0.00001271     -6918.6515893648  5.14E-06
    99 OT DIIS     0.80E-01   12.1     0.00000137     -6918.6515898392 -4.74E-07
   100 OT SD       0.80E-01   12.1     0.00000136     -6918.6515939305 -4.09E-06

  Leaving inner SCF loop after reaching   100 steps.


  Electronic density on regular grids:      -2432.0000000075       -0.0000000075
  Core density on regular grids:             2431.9999999988       -0.0000000012
  Total charge density on r-space grids:       -0.0000000086
  Total charge density g-space grids:          -0.0000000086

  Overlap energy of the core charge distribution:               0.00013038754215
  Self energy of the core charge distribution:             -16017.19408509233290
  Core Hamiltonian energy:                                   4271.87798113313420
  Hartree energy:                                            6149.05311282146795
  Exchange-correlation energy:                              -1320.58007821193814
  Dispersion energy:                                           -1.80865496839484

  Total energy:                                             -6918.65159393052363

  outer SCF iter =   22 RMS gradient =   0.14E-05 energy =      -6918.6515939305

  ----------------------------------- OT ---------------------------------------
  Minimizer      : DIIS                : direct inversion
                                         in the iterative subspace
                                         using   7 DIIS vectors
                                         safer DIIS on
  Preconditioner : FULL_SINGLE_INVERSE : inversion of 
                                         H + eS - 2*(Sc)(c^T*H*c+const)(Sc)^T
  Precond_solver : DEFAULT
  stepsize       :    0.08000000                  energy_gap     :    0.08000000
  eps_taylor     :   0.10000E-15                  max_taylor     :             4
  ----------------------------------- OT ---------------------------------------

  Step     Update method      Time    Convergence         Total energy    Change
  ------------------------------------------------------------------------------
     1 OT DIIS     0.80E-01   33.5     0.00000137     -6918.6515948297 -8.99E-07
     2 OT DIIS     0.80E-01   12.2     0.00000142     -6918.6515957220 -8.92E-07
     3 OT DIIS     0.80E-01   11.6     0.00000136     -6918.6515958985 -1.76E-07
     4 OT DIIS     0.80E-01   12.0     0.00000136     -6918.6515961347 -2.36E-07
     5 OT DIIS     0.80E-01   12.1     0.00000136     -6918.6515965754 -4.41E-07
     6 OT DIIS     0.80E-01   11.9     0.00000136     -6918.6515989777 -2.40E-06
     7 OT SD       0.80E-01   12.1     0.00000136     -6918.6516023300 -3.35E-06
     8 OT SD       0.80E-01   12.5     0.00000136     -6918.6516032290 -8.99E-07
     9 OT SD       0.80E-01   12.2     0.00000140     -6918.6516041237 -8.95E-07
    10 OT SD       0.80E-01   11.7     0.00000216     -6918.6516049144 -7.91E-07
    11 OT SD       0.80E-01   12.1     0.00000872     -6918.6516030152  1.90E-06
    12 OT DIIS     0.80E-01   12.2     0.00004526     -6918.6515278461  7.52E-05
    13 OT SD       0.80E-01   12.4     0.00000137     -6918.6515944128 -6.66E-05
    14 OT SD       0.80E-01   12.4     0.00000143     -6918.6515953039 -8.91E-07
    15 OT SD       0.80E-01   12.3     0.00000256     -6918.6515960259 -7.22E-07
    16 OT DIIS     0.80E-01   12.4     0.00001145     -6918.6515921318  3.89E-06
    17 OT DIIS     0.80E-01   12.4     0.00000136     -6918.6515919144  2.17E-07
    18 OT SD       0.80E-01   12.0     0.00000136     -6918.6515956420 -3.73E-06
    19 OT DIIS     0.80E-01   11.8     0.00000137     -6918.6515965386 -8.97E-07
    20 OT DIIS     0.80E-01   11.8     0.00000136     -6918.6515969955 -4.57E-07
    21 OT SD       0.80E-01   12.4     0.00000136     -6918.6515983891 -1.39E-06
    22 OT DIIS     0.80E-01   12.2     0.00000148     -6918.6515992734 -8.84E-07
    23 OT DIIS     0.80E-01   12.2     0.00000136     -6918.6516028796 -3.61E-06
    24 OT DIIS     0.80E-01   11.8     0.00000136     -6918.6516079579 -5.08E-06
    25 OT SD       0.80E-01   12.1     0.00000136     -6918.6516083187 -3.61E-07
    26 OT SD       0.80E-01   12.2     0.00000137     -6918.6516092139 -8.95E-07
    27 OT SD       0.80E-01   12.0     0.00000163     -6918.6516100786 -8.65E-07
    28 OT SD       0.80E-01   12.3     0.00000460     -6918.6516102191 -1.41E-07
    29 OT DIIS     0.80E-01   11.9     0.00002176     -6918.6515927429  1.75E-05
    30 OT SD       0.80E-01   12.5     0.00000136     -6918.6516065246 -1.38E-05
    31 OT SD       0.80E-01   12.2     0.00000140     -6918.6516074163 -8.92E-07
    32 OT SD       0.80E-01   12.1     0.00000220     -6918.6516082018 -7.86E-07
    33 OT SD       0.80E-01   12.2     0.00000929     -6918.6516059910  2.21E-06
    34 OT DIIS     0.80E-01   12.1     0.00004957     -6918.6515172131  8.88E-05
    35 OT SD       0.80E-01   12.1     0.00000136     -6918.6516006284 -8.34E-05
    36 OT SD       0.80E-01   11.7     0.00000147     -6918.6516015105 -8.82E-07
    37 OT SD       0.80E-01   11.9     0.00000308     -6918.6516021134 -6.03E-07
    38 OT DIIS     0.80E-01   12.2     0.00001433     -6918.6515953736  6.74E-06
    39 OT DIIS     0.80E-01   12.5     0.00000137     -6918.6515943076  1.07E-06
    40 OT SD       0.80E-01   12.2     0.00000136     -6918.6516012993 -6.99E-06
    41 OT SD       0.80E-01   12.4     0.00000137     -6918.6516021923 -8.93E-07
    42 OT SD       0.80E-01   11.8     0.00000150     -6918.6516030699 -8.78E-07
    43 OT SD       0.80E-01   12.1     0.00000336     -6918.6516035924 -5.23E-07
    44 OT DIIS     0.80E-01   12.5     0.00001524     -6918.6515955469  8.05E-06
    45 OT SD       0.80E-01   11.9     0.00000136     -6918.6515949022  6.45E-07
    46 OT SD       0.80E-01   12.1     0.00000137     -6918.6515957942 -8.92E-07
    47 OT SD       0.80E-01   12.4     0.00000160     -6918.6515966597 -8.66E-07
    48 OT SD       0.80E-01   12.3     0.00000456     -6918.6515968398 -1.80E-07
    49 OT DIIS     0.80E-01   12.5     0.00002291     -6918.6515782747  1.86E-05
    50 OT DIIS     0.80E-01   12.1     0.00000136     -6918.6515981629 -1.99E-05
    51 OT DIIS     0.80E-01   12.1     0.00000136     -6918.6515991350 -9.72E-07
    52 OT SD       0.80E-01   12.1     0.00000136     -6918.6516002230 -1.09E-06
    53 OT SD       0.80E-01   12.4     0.00000136     -6918.6516011156 -8.93E-07
    54 OT SD       0.80E-01   12.0     0.00000142     -6918.6516020014 -8.86E-07
    55 OT SD       0.80E-01   12.1     0.00000243     -6918.6516027314 -7.30E-07
    56 OT DIIS     0.80E-01   12.2     0.00000989     -6918.6515998434  2.89E-06
    57 OT SD       0.80E-01   12.5     0.00000136     -6918.6515959528  3.89E-06
    58 OT SD       0.80E-01   12.1     0.00000141     -6918.6515968400 -8.87E-07
    59 OT SD       0.80E-01   11.9     0.00000232     -6918.6515975982 -7.58E-07
    60 OT DIIS     0.80E-01   12.3     0.00000978     -6918.6515949527  2.65E-06
    61 OT DIIS     0.80E-01   12.4     0.00000136     -6918.6515928222  2.13E-06
    62 OT SD       0.80E-01   12.0     0.00000136     -6918.6515964438 -3.62E-06
    63 OT SD       0.80E-01   12.4     0.00000136     -6918.6515973347 -8.91E-07
    64 OT DIIS     0.80E-01   12.3     0.00000148     -6918.6515982110 -8.76E-07
    65 OT SD       0.80E-01   12.4     0.00000137     -6918.6516029685 -4.76E-06
    66 OT DIIS     0.80E-01   12.1     0.00000160     -6918.6516038300 -8.62E-07
    67 OT DIIS     0.80E-01   12.1     0.00000136     -6918.6516111149 -7.28E-06
    68 OT SD       0.80E-01   11.7     0.00000136     -6918.6516161491 -5.03E-06
    69 OT SD       0.80E-01   12.4     0.00000144     -6918.6516170292 -8.80E-07
    70 OT SD       0.80E-01   12.2     0.00000265     -6918.6516177249 -6.96E-07
    71 OT DIIS     0.80E-01   12.2     0.00001221     -6918.6516132384  4.49E-06
    72 OT DIIS     0.80E-01   12.2     0.00000136     -6918.6516111043  2.13E-06
    73 OT SD       0.80E-01   12.1     0.00000136     -6918.6516133870 -2.28E-06
    74 OT SD       0.80E-01   11.8     0.00000141     -6918.6516142699 -8.83E-07
    75 OT SD       0.80E-01   12.0     0.00000246     -6918.6516150009 -7.31E-07
    76 OT DIIS     0.80E-01   12.1     0.00001081     -6918.6516116047  3.40E-06
    77 OT SD       0.80E-01   12.2     0.00000136     -6918.6516126923 -1.09E-06
    78 OT SD       0.80E-01   12.2     0.00000141     -6918.6516135753 -8.83E-07
    79 OT SD       0.80E-01   12.2     0.00000239     -6918.6516143173 -7.42E-07
    80 OT SD       0.80E-01   12.4     0.00001035     -6918.6516112660  3.05E-06
    81 OT DIIS     0.80E-01   12.4     0.00005425     -6918.6515032449  1.08E-04
    82 OT SD       0.80E-01   12.0     0.00000136     -6918.6516029216 -9.97E-05
    83 OT SD       0.80E-01   12.2     0.00000152     -6918.6516037854 -8.64E-07
    84 OT SD       0.80E-01   12.1     0.00000377     -6918.6516041989 -4.13E-07
    85 OT DIIS     0.80E-01   12.1     0.00001845     -6918.6515924980  1.17E-05
    86 OT DIIS     0.80E-01   12.0     0.00000141     -6918.6515871359  5.36E-06
    87 OT DIIS     0.80E-01   12.5     0.00000135     -6918.6516044408 -1.73E-05
    88 OT DIIS     0.80E-01   12.3     0.00000135     -6918.6516048059 -3.65E-07
    89 OT DIIS     0.80E-01   12.6     0.00000135     -6918.6516049457 -1.40E-07
    90 OT DIIS     0.80E-01   12.1     0.00000135     -6918.6516051025 -1.57E-07
    91 OT SD       0.80E-01   12.1     0.00000135     -6918.6516058573 -7.55E-07
    92 OT SD       0.80E-01   12.3     0.00000137     -6918.6516067390 -8.82E-07
    93 OT SD       0.80E-01   12.7     0.00000186     -6918.6516075619 -8.23E-07
    94 OT SD       0.80E-01   12.6     0.00000674     -6918.6516068160  7.46E-07
    95 OT DIIS     0.80E-01   12.1     0.00003490     -6918.6515627031  4.41E-05
    96 OT SD       0.80E-01   12.4     0.00000137     -6918.6515924075 -2.97E-05
    97 OT SD       0.80E-01   12.1     0.00000145     -6918.6515932789 -8.71E-07
    98 OT DIIS     0.80E-01   12.3     0.00000256     -6918.6515939690 -6.90E-07
    99 OT SD       0.80E-01   11.7     0.00000135     -6918.6515955912 -1.62E-06
   100 OT SD       0.80E-01   12.4     0.00000139     -6918.6515964678 -8.77E-07

  Leaving inner SCF loop after reaching   100 steps.


  Electronic density on regular grids:      -2432.0000000078       -0.0000000078
  Core density on regular grids:             2431.9999999988       -0.0000000012
  Total charge density on r-space grids:       -0.0000000089
  Total charge density g-space grids:          -0.0000000089

  Overlap energy of the core charge distribution:               0.00013038754215
  Self energy of the core charge distribution:             -16017.19408509233290
  Core Hamiltonian energy:                                   4271.87795185509276
  Hartree energy:                                            6149.05312459977267
  Exchange-correlation energy:                              -1320.58006324951020
  Dispersion energy:                                           -1.80865496839484

  Total energy:                                             -6918.65159646783104

  outer SCF iter =   23 RMS gradient =   0.14E-05 energy =      -6918.6515964678

  ----------------------------------- OT ---------------------------------------
  Minimizer      : DIIS                : direct inversion
                                         in the iterative subspace
                                         using   7 DIIS vectors
                                         safer DIIS on
  Preconditioner : FULL_SINGLE_INVERSE : inversion of 
                                         H + eS - 2*(Sc)(c^T*H*c+const)(Sc)^T
  Precond_solver : DEFAULT
  stepsize       :    0.08000000                  energy_gap     :    0.08000000
  eps_taylor     :   0.10000E-15                  max_taylor     :             4
  ----------------------------------- OT ---------------------------------------

  Step     Update method      Time    Convergence         Total energy    Change
  ------------------------------------------------------------------------------
     1 OT DIIS     0.80E-01   34.0     0.00000230     -6918.6515972206 -7.53E-07
     2 OT DIIS     0.80E-01   11.9     0.00001005     -6918.6515944547  2.77E-06
     3 OT DIIS     0.80E-01   11.8     0.00000141     -6918.6515983660 -3.91E-06
     4 OT DIIS     0.80E-01   12.0     0.00000135     -6918.6515985445 -1.79E-07
     5 OT DIIS     0.80E-01   12.0     0.00000135     -6918.6515987726 -2.28E-07
     6 OT DIIS     0.80E-01   12.4     0.00000135     -6918.6515989811 -2.09E-07
     7 OT SD       0.80E-01   12.2     0.00000135     -6918.6515990944 -1.13E-07
     8 OT SD       0.80E-01   11.9     0.00000135     -6918.6515999754 -8.81E-07
     9 OT SD       0.80E-01   12.0     0.00000135     -6918.6516008564 -8.81E-07
    10 OT SD       0.80E-01   12.2     0.00000138     -6918.6516017342 -8.78E-07
    11 OT SD       0.80E-01   12.2     0.00000207     -6918.6516025234 -7.89E-07
    12 OT SD       0.80E-01   12.3     0.00000846     -6918.6516008257  1.70E-06
    13 OT DIIS     0.80E-01   12.2     0.00004470     -6918.6515283091  7.25E-05
    14 OT SD       0.80E-01   11.8     0.00000137     -6918.6515934312 -6.51E-05
    15 OT SD       0.80E-01   11.9     0.00000152     -6918.6515942930 -8.62E-07
    16 OT SD       0.80E-01   12.1     0.00000363     -6918.6515947469 -4.54E-07
    17 OT DIIS     0.80E-01   12.4     0.00001789     -6918.6515839018  1.08E-05
    18 OT DIIS     0.80E-01   12.2     0.00000135     -6918.6515879298 -4.03E-06
    19 OT SD       0.80E-01   12.3     0.00000135     -6918.6515944050 -6.48E-06
    20 OT SD       0.80E-01   12.6     0.00000136     -6918.6515952817 -8.77E-07
    21 OT DIIS     0.80E-01   12.0     0.00000165     -6918.6515961246 -8.43E-07
    22 OT SD       0.80E-01   12.0     0.00000135     -6918.6515973209 -1.20E-06
    23 OT SD       0.80E-01   12.1     0.00000137     -6918.6515981971 -8.76E-07
    24 OT SD       0.80E-01   12.3     0.00000183     -6918.6515990186 -8.22E-07
    25 OT DIIS     0.80E-01   12.1     0.00000673     -6918.6515982984  7.20E-07
    26 OT DIIS     0.80E-01   12.1     0.00000135     -6918.6515984147 -1.16E-07
    27 OT DIIS     0.80E-01   12.2     0.00000135     -6918.6515985660 -1.51E-07
