 DBCSR| CPU Multiplication driver                                           XSMM (U)
 DBCSR| Multrec recursion limit                                              512 (U)
 DBCSR| Multiplication stack size                                          30000 (D)
 DBCSR| Maximum elements for images                                    UNLIMITED (U)
 DBCSR| Multiplicative factor virtual images                                   1 (U)
 DBCSR| Use multiplication densification                                       F (D)
 DBCSR| Multiplication size stacks                                             3 (U)
 DBCSR| Use memory pool for CPU allocation                                     F (U)
 DBCSR| Number of 3D layers                                               SINGLE (U)
 DBCSR| Use MPI memory allocation                                              F (U)
 DBCSR| Use RMA algorithm                                                      F (U)
 DBCSR| Use Communication thread                                               T (U)
 DBCSR| Communication thread load                                             30 (D)
 DBCSR| MPI: My process id                                                     0
 DBCSR| MPI: Number of processes                                               1
 DBCSR| OMP: Current number of threads                                        16
 DBCSR| OMP: Max number of threads                                            16
 DBCSR| ACC: Number of devices/node                                            1
 DBCSR| ACC: Number of stack-buffers per thread                                8 (U)
 DBCSR| ACC: Avoid driver after busy                                           F (U)
 DBCSR| ACC: Process inhomogeneous stacks                                      T (U)
 DBCSR| ACC: Min. flop for processing                                          0 (U)
 DBCSR| ACC: Use G2G algorithm                                                 F (D)
 DBCSR| ACC: Min. flop for sorting                                          4000 (U)
 DBCSR| ACC: Number of binning bins                                         4096 (U)
 DBCSR| ACC: Size of binning bins                                             16 (U)
 DBCSR| ACC: GPU backend is enabled                                            T (D)
 DBCSR| Split modifier for TAS multiplication algorithm                  1.0E+00 (U)


  **** **** ******  **  PROGRAM STARTED AT               2025-10-22 17:39:44.897
 ***** ** ***  *** **   PROGRAM STARTED ON                          783e706a1ea1
 **    ****   ******    PROGRAM STARTED BY                             <unknown>
 ***** **    ** ** **   PROGRAM PROCESS ID                                   614
  **** **  *******  **  PROGRAM STARTED IN                             /mnt/cp2k

 CP2K| version string:                                       CP2K version 2025.1
 CP2K| source code revision number:                                  git:9635df4
 CP2K| cp2kflags: omp libint fftw3 libxc libgrpp pexsi elpa elpa_nvidia_gpu para
 CP2K|            llel scalapack cosma quip xsmm dbcsr_acc plumed2 spglib libdft
 CP2K|            td4 sirius libvori libbqb offload_cuda spla_gemm_offloading li
 CP2K|            ibvdwxc hdf5 trexio
 CP2K| is freely available from                            https://www.cp2k.org/
 CP2K| Program compiled at                          Tue Jan 14 21:07:27 UTC 2025
 CP2K| Program compiled on                                          eb3a76499499
 CP2K| Program compiled for                                           local_cuda
 CP2K| Data directory path                                        /opt/cp2k/data
 CP2K| Input file name                                           HAP_102_opt.inp

 GLOBAL| Force Environment number                                              1
 GLOBAL| Basis set file name                                        BASIS_MOLOPT
 GLOBAL| Potential file name                                      GTH_POTENTIALS
 GLOBAL| MM Potential file name                                     MM_POTENTIAL
 GLOBAL| Coordinate file name                                  HAP_102_clean.xyz
 GLOBAL| Method name                                                        CP2K
 GLOBAL| Project name                                                HAP_102_opt
 GLOBAL| Run type                                                        GEO_OPT
 GLOBAL| FFT library                                                       FFTW3
 GLOBAL| Diagonalization library                                            ELPA
 GLOBAL| DGEMM library                                                      SPLA
 GLOBAL| Minimum number of eigenvectors for ELPA usage                        16
 GLOBAL| Orthonormality check for eigenvectors                          DISABLED
 GLOBAL| Matrix multiplication library                                     COSMA
 GLOBAL| All-to-all communication in single precision                          F
 GLOBAL| FFTs using library dependent lengths                                  F
 GLOBAL| Grid backend                                                       AUTO
 GLOBAL| Global print level                                                  LOW
 GLOBAL| MPI I/O enabled                                                       T
 GLOBAL| Total number of message passing processes                             1
 GLOBAL| Number of threads for this process                                   16
 GLOBAL| This output is from process                                           0
 GLOBAL| OpenMP stack size per thread (OMP_STACKSIZE)                        16M
 GLOBAL| CPU model name                              Intel(R) Core(TM) i7-14700K
 GLOBAL| CPUID                                                              1002
 GLOBAL| Compiled for CPUID                                                    0

 *** HINT in environment.F:928 :: The compiler target flags (generic) used ***
 *** to build this binary cannot exploit all extensions of this CPU model  ***
 *** (x86_avx2). Consider compiler target flags as part of FCFLAGS and     ***
 *** CFLAGS (ARCH file).                                                   ***


 MEMORY| system memory details [Kb]
 MEMORY|                        rank 0           min           max       average
 MEMORY| MemTotal             32768664      32768664      32768664      32768664
 MEMORY| MemFree              31233040      31233040      31233040      31233040
 MEMORY| Buffers                 17908         17908         17908         17908
 MEMORY| Cached                 479448        479448        479448        479448
 MEMORY| Slab                   137620        137620        137620        137620
 MEMORY| SReclaimable            43776         43776         43776         43776
 MEMORY| MemLikelyFree        31774172      31774172      31774172      31774172


 GENERATE|  Preliminary Number of Bonds generated:                             0
 GENERATE|  Achieved consistency in connectivity generation.

 *******************************************************************************
 *******************************************************************************
 **                                                                           **
 **     #####                         ##              ##                      **
 **    ##   ##            ##          ##              ##                      **
 **   ##     ##                       ##            ######                    **
 **   ##     ##  ##   ##  ##   #####  ##  ##   ####   ##    #####    #####    **
 **   ##     ##  ##   ##  ##  ##      ## ##   ##      ##   ##   ##  ##   ##   **
 **   ##  ## ##  ##   ##  ##  ##      ####     ###    ##   ######   ######    **
 **    ##  ###   ##   ##  ##  ##      ## ##      ##   ##   ##       ##        **
 **     #######   #####   ##   #####  ##  ##  ####    ##    #####   ##        **
 **           ##                                                    ##        **
 **                                                                           **
 **                                                ... make the atoms dance   **
 **                                                                           **
 **            Copyright (C) by CP2K developers group (2000-2025)             **
 **                      J. Chem. Phys. 152, 194103 (2020)                    **
 **                                                                           **
 *******************************************************************************


 TOTAL NUMBERS AND MAXIMUM NUMBERS

  Total number of            - Atomic kinds:                                   5
                             - Atoms:                                        387
                             - Shell sets:                                   387
                             - Shells:                                      2015
                             - Primitive Cartesian functions:               2031
                             - Cartesian basis functions:                   5338
                             - Spherical basis functions:                   4983

  Maximum angular momentum of- Orbital basis functions:                        2
                             - Local part of the GTH pseudopotential:          2
                             - Non-local part of the GTH pseudopotential:      3


 SCF PARAMETERS         Density guess:                                    ATOMIC
                        --------------------------------------------------------
                        max_scf:                                             100
                        max_scf_history:                                       0
                        max_diis:                                              4
                        --------------------------------------------------------
                        eps_scf:                                        1.00E-06
                        eps_scf_history:                                0.00E+00
                        eps_diis:                                       1.00E-01
                        eps_eigval:                                     1.00E-05
                        --------------------------------------------------------
                        level_shift [a.u.]:                             0.000000
                        --------------------------------------------------------
                        Outer loop SCF in use 
                        No variables optimised in outer loop
                        eps_scf                                         1.00E-06
                        max_scf                                               50
                        No outer loop optimization
                        step_size                                       5.00E-01

 *******************************************************************************
 ***                     STARTING GEOMETRY OPTIMIZATION                      ***
 ***                                 L-BFGS                                  ***
 *******************************************************************************

 --------------------------
 OPTIMIZATION STEP:      1
 --------------------------

 Number of electrons:                                                       2432
 Number of occupied orbitals:                                               1216
 Number of molecular orbitals:                                              1216

 Number of orbital functions:                                               4983
 Number of independent orbital functions:                                   4983

 Extrapolation method: initial_guess


 SCF WAVEFUNCTION OPTIMIZATION

  ----------------------------------- OT ---------------------------------------
  Minimizer      : DIIS                : direct inversion
                                         in the iterative subspace
                                         using   7 DIIS vectors
                                         safer DIIS on
  Preconditioner : FULL_SINGLE_INVERSE : inversion of 
                                         H + eS - 2*(Sc)(c^T*H*c+const)(Sc)^T
  Precond_solver : DEFAULT
  stepsize       :    0.08000000                  energy_gap     :    0.08000000
  eps_taylor     :   0.10000E-15                  max_taylor     :             4
  ----------------------------------- OT ---------------------------------------

  Step     Update method      Time    Convergence         Total energy    Change
  ------------------------------------------------------------------------------
     1 OT DIIS     0.80E-01   15.3     0.01619798     -6700.1499476621 -6.70E+03
     2 OT DIIS     0.80E-01    8.9     0.00997013     -6773.4796449748 -7.33E+01
     3 OT DIIS     0.80E-01   10.2     0.00746476     -6804.1385918660 -3.07E+01
     4 OT DIIS     0.80E-01   20.5     0.00689278     -6826.9349731415 -2.28E+01
     5 OT DIIS     0.80E-01   29.9     0.00408380     -6847.4574160407 -2.05E+01
     6 OT DIIS     0.80E-01   13.3     0.00321495     -6860.2003127614 -1.27E+01
     7 OT DIIS     0.80E-01   36.1     0.00254742     -6869.6527330919 -9.45E+00
     8 OT DIIS     0.80E-01   28.1     0.00206153     -6876.6912540229 -7.04E+00
     9 OT DIIS     0.80E-01   30.5     0.00160843     -6882.1975296791 -5.51E+00
    10 OT DIIS     0.80E-01   31.2     0.00126894     -6885.8890800110 -3.69E+00
    11 OT DIIS     0.80E-01   32.6     0.00103399     -6888.1486947560 -2.26E+00
    12 OT DIIS     0.80E-01   30.7     0.00085868     -6889.7239743691 -1.58E+00
    13 OT DIIS     0.80E-01   32.0     0.00071339     -6890.9168835016 -1.19E+00
    14 OT DIIS     0.80E-01   33.6     0.00060292     -6891.7562979750 -8.39E-01
    15 OT DIIS     0.80E-01   33.4     0.00051398     -6892.3676161289 -6.11E-01
    16 OT DIIS     0.80E-01   30.7     0.00044728     -6892.8080222884 -4.40E-01
    17 OT DIIS     0.80E-01   34.1     0.00039105     -6893.1542609414 -3.46E-01
    18 OT DIIS     0.80E-01   30.4     0.00034431     -6893.4263918461 -2.72E-01
    19 OT DIIS     0.80E-01   30.7     0.00030370     -6893.6545128589 -2.28E-01
    20 OT DIIS     0.80E-01   31.5     0.00026935     -6893.8349428246 -1.80E-01
    21 OT DIIS     0.80E-01   30.7     0.00023999     -6893.9818122625 -1.47E-01
    22 OT DIIS     0.80E-01   34.6     0.00021531     -6894.1023972440 -1.21E-01
    23 OT DIIS     0.80E-01   24.4     0.00019390     -6894.2032304434 -1.01E-01
    24 OT DIIS     0.80E-01   30.9     0.00017550     -6894.2861047826 -8.29E-02
    25 OT DIIS     0.80E-01   30.6     0.00016090     -6894.3477661587 -6.17E-02
    26 OT DIIS     0.80E-01   33.6     0.00014558     -6894.4155224019 -6.78E-02
    27 OT DIIS     0.80E-01   25.8     0.00013355     -6894.4655218360 -5.00E-02
    28 OT DIIS     0.80E-01   25.7     0.00012357     -6894.5050094428 -3.95E-02
    29 OT DIIS     0.80E-01   31.5     0.00011294     -6894.5463811114 -4.14E-02
    30 OT DIIS     0.80E-01   26.0     0.00010390     -6894.5816674519 -3.53E-02
    31 OT DIIS     0.80E-01   30.7     0.00009716     -6894.6075836742 -2.59E-02
    32 OT DIIS     0.80E-01   31.2     0.00009043     -6894.6299094371 -2.23E-02
    33 OT DIIS     0.80E-01   37.9     0.00008322     -6894.6569963903 -2.71E-02
    34 OT DIIS     0.80E-01   35.9     0.00007729     -6894.6778426824 -2.08E-02
    35 OT DIIS     0.80E-01   34.2     0.00007280     -6894.6924772336 -1.46E-02
    36 OT DIIS     0.80E-01   30.1     0.00006716     -6894.7111324787 -1.87E-02
    37 OT DIIS     0.80E-01   31.0     0.00006240     -6894.7276544223 -1.65E-02
    38 OT DIIS     0.80E-01   25.6     0.00005940     -6894.7377942619 -1.01E-02
    39 OT DIIS     0.80E-01   30.3     0.00005588     -6894.7483661200 -1.06E-02
    40 OT DIIS     0.80E-01   25.3     0.00005166     -6894.7626873737 -1.43E-02
    41 OT DIIS     0.80E-01   30.3     0.00004858     -6894.7728919147 -1.02E-02
    42 OT DIIS     0.80E-01   31.4     0.00004638     -6894.7794674844 -6.58E-03
    43 OT DIIS     0.80E-01   32.6     0.00004294     -6894.7895300424 -1.01E-02
    44 OT DIIS     0.80E-01   25.9     0.00003995     -6894.7988698671 -9.34E-03
    45 OT DIIS     0.80E-01   30.0     0.00003816     -6894.8045377909 -5.67E-03
    46 OT DIIS     0.80E-01   30.9     0.00003615     -6894.8092708372 -4.73E-03
    47 OT DIIS     0.80E-01   31.4     0.00003362     -6894.8172596759 -7.99E-03
    48 OT DIIS     0.80E-01   31.3     0.00003161     -6894.8231100689 -5.85E-03
    49 OT DIIS     0.80E-01   27.4     0.00003031     -6894.8263394179 -3.23E-03
    50 OT DIIS     0.80E-01   30.3     0.00002834     -6894.8313398085 -5.00E-03
    51 OT DIIS     0.80E-01   33.4     0.00002689     -6894.8353247619 -3.98E-03
    52 OT DIIS     0.80E-01   26.2     0.00002597     -6894.8382662291 -2.94E-03
    53 OT DIIS     0.80E-01   30.5     0.00002484     -6894.8409390764 -2.67E-03
    54 OT DIIS     0.80E-01   30.9     0.00002349     -6894.8447720597 -3.83E-03
    55 OT DIIS     0.80E-01   34.6     0.00002233     -6894.8481813239 -3.41E-03
    56 OT DIIS     0.80E-01   37.4     0.00002171     -6894.8501421276 -1.96E-03
    57 OT DIIS     0.80E-01   30.4     0.00002091     -6894.8522755060 -2.13E-03
    58 OT DIIS     0.80E-01   30.7     0.00002022     -6894.8544837323 -2.21E-03
    59 OT DIIS     0.80E-01   29.0     0.00001949     -6894.8567437845 -2.26E-03
    60 OT DIIS     0.80E-01   24.2     0.00001873     -6894.8586485518 -1.90E-03
    61 OT DIIS     0.80E-01   30.0     0.00001793     -6894.8613353853 -2.69E-03
    62 OT DIIS     0.80E-01   30.5     0.00001726     -6894.8636915811 -2.36E-03
    63 OT DIIS     0.80E-01   27.4     0.00001694     -6894.8644985516 -8.07E-04
    64 OT DIIS     0.80E-01   30.9     0.00001644     -6894.8658624914 -1.36E-03
    65 OT DIIS     0.80E-01   25.9     0.00001594     -6894.8672845171 -1.42E-03
    66 OT DIIS     0.80E-01   30.2     0.00001543     -6894.8687441742 -1.46E-03
    67 OT DIIS     0.80E-01   28.8     0.00001488     -6894.8703408237 -1.60E-03
    68 OT DIIS     0.80E-01   28.2     0.00001451     -6894.8715280647 -1.19E-03
    69 OT DIIS     0.80E-01   31.2     0.00001422     -6894.8726559860 -1.13E-03
    70 OT DIIS     0.80E-01   23.8     0.00001402     -6894.8734603732 -8.04E-04
    71 OT DIIS     0.80E-01   30.4     0.00001373     -6894.8746330856 -1.17E-03
    72 OT DIIS     0.80E-01   25.9     0.00001349     -6894.8759283243 -1.30E-03
    73 OT DIIS     0.80E-01   30.6     0.00001317     -6894.8767941336 -8.66E-04
    74 OT DIIS     0.80E-01   33.9     0.00001293     -6894.8786590177 -1.86E-03
    75 OT DIIS     0.80E-01   29.1     0.00001232     -6894.8796264873 -9.67E-04
    76 OT DIIS     0.80E-01   30.7     0.00001240     -6894.8817550877 -2.13E-03
    77 OT DIIS     0.80E-01   26.7     0.00001134     -6894.8825693989 -8.14E-04
    78 OT DIIS     0.80E-01   31.2     0.00001083     -6894.8840049750 -1.44E-03
    79 OT DIIS     0.80E-01   28.2     0.00001029     -6894.8848398945 -8.35E-04
    80 OT DIIS     0.80E-01   30.4     0.00001006     -6894.8855267784 -6.87E-04
    81 OT DIIS     0.80E-01   20.8     0.00000977     -6894.8862598151 -7.33E-04
    82 OT DIIS     0.80E-01   32.3     0.00000950     -6894.8868068725 -5.47E-04
    83 OT DIIS     0.80E-01   26.8     0.00000921     -6894.8873474131 -5.41E-04
    84 OT DIIS     0.80E-01   31.7     0.00000890     -6894.8880084370 -6.61E-04
    85 OT DIIS     0.80E-01   31.6     0.00000862     -6894.8887354331 -7.27E-04
    86 OT DIIS     0.80E-01   33.2     0.00000844     -6894.8890964343 -3.61E-04
    87 OT DIIS     0.80E-01   30.5     0.00000825     -6894.8894716516 -3.75E-04
    88 OT DIIS     0.80E-01   30.4     0.00000807     -6894.8899194021 -4.48E-04
    89 OT DIIS     0.80E-01   31.7     0.00000786     -6894.8905791199 -6.60E-04
    90 OT DIIS     0.80E-01   32.0     0.00000765     -6894.8911010777 -5.22E-04
    91 OT DIIS     0.80E-01   36.4     0.00000739     -6894.8917414903 -6.40E-04
    92 OT DIIS     0.80E-01   33.1     0.00000720     -6894.8923805655 -6.39E-04
    93 OT DIIS     0.80E-01   32.0     0.00000706     -6894.8925670927 -1.87E-04
    94 OT DIIS     0.80E-01   31.9     0.00000694     -6894.8932503435 -6.83E-04
    95 OT DIIS     0.80E-01   34.1     0.00000666     -6894.8935235163 -2.73E-04
    96 OT DIIS     0.80E-01   33.6     0.00000658     -6894.8938722075 -3.49E-04
    97 OT DIIS     0.80E-01   32.1     0.00000643     -6894.8941464810 -2.74E-04
    98 OT DIIS     0.80E-01   31.8     0.00000625     -6894.8947889632 -6.42E-04
    99 OT DIIS     0.80E-01   28.7     0.00000608     -6894.8950308271 -2.42E-04
   100 OT DIIS     0.80E-01   31.0     0.00000598     -6894.8953156999 -2.85E-04

  Leaving inner SCF loop after reaching   100 steps.


  Electronic density on regular grids:      -2431.9999999639        0.0000000361
  Core density on regular grids:             2431.9999999988       -0.0000000012
  Total charge density on r-space grids:        0.0000000349
  Total charge density g-space grids:           0.0000000349

  Overlap energy of the core charge distribution:               0.02757954006918
  Self energy of the core charge distribution:             -16017.19408509233290
  Core Hamiltonian energy:                                   4334.86635950201799
  Hartree energy:                                            6120.94451833311814
  Exchange-correlation energy:                              -1331.49753728586074
  Dispersion energy:                                           -2.04215069689538

  Total energy:                                             -6894.89531569988321

  outer SCF iter =    1 RMS gradient =   0.60E-05 energy =      -6894.8953156999

  ----------------------------------- OT ---------------------------------------
  Minimizer      : DIIS                : direct inversion
                                         in the iterative subspace
                                         using   7 DIIS vectors
                                         safer DIIS on
  Preconditioner : FULL_SINGLE_INVERSE : inversion of 
                                         H + eS - 2*(Sc)(c^T*H*c+const)(Sc)^T
  Precond_solver : DEFAULT
  stepsize       :    0.08000000                  energy_gap     :    0.08000000
  eps_taylor     :   0.10000E-15                  max_taylor     :             4
  ----------------------------------- OT ---------------------------------------

  Step     Update method      Time    Convergence         Total energy    Change
  ------------------------------------------------------------------------------
     1 OT DIIS     0.80E-01   67.3     0.00010049     -6894.8958669357 -5.51E-04
     2 OT DIIS     0.80E-01   27.2     0.00010383     -6894.8986925778 -2.83E-03
     3 OT DIIS     0.80E-01   23.7     0.00013300     -6894.8992390523 -5.46E-04
     4 OT DIIS     0.80E-01   31.2     0.00009853     -6894.9002805412 -1.04E-03
     5 OT DIIS     0.80E-01   28.8     0.00006569     -6894.9012999781 -1.02E-03
     6 OT DIIS     0.80E-01   28.0     0.00005916     -6894.9018613339 -5.61E-04
     7 OT DIIS     0.80E-01   28.5     0.00004668     -6894.9024566587 -5.95E-04
     8 OT DIIS     0.80E-01   28.6     0.00003946     -6894.9029633054 -5.07E-04
     9 OT DIIS     0.80E-01   28.4     0.00003395     -6894.9034200359 -4.57E-04
    10 OT DIIS     0.80E-01   30.3     0.00003730     -6894.9038407259 -4.21E-04
    11 OT DIIS     0.80E-01   30.2     0.00003018     -6894.9043200960 -4.79E-04
    12 OT DIIS     0.80E-01   31.4     0.00003302     -6894.9047456732 -4.26E-04
    13 OT DIIS     0.80E-01   30.0     0.00003126     -6894.9051128267 -3.67E-04
    14 OT DIIS     0.80E-01   30.5     0.00003035     -6894.9054526312 -3.40E-04
    15 OT DIIS     0.80E-01   30.1     0.00002975     -6894.9057201377 -2.68E-04
    16 OT DIIS     0.80E-01   29.8     0.00002734     -6894.9059825174 -2.62E-04
    17 OT DIIS     0.80E-01   20.8     0.00002599     -6894.9062075625 -2.25E-04
    18 OT DIIS     0.80E-01   30.7     0.00002712     -6894.9065039047 -2.96E-04
    19 OT DIIS     0.80E-01   31.3     0.00002601     -6894.9065605049 -5.66E-05
    20 OT DIIS     0.80E-01   31.1     0.00002756     -6894.9067181650 -1.58E-04
    21 OT DIIS     0.80E-01   28.5     0.00002591     -6894.9068287032 -1.11E-04
    22 OT DIIS     0.80E-01   31.5     0.00002534     -6894.9068722349 -4.35E-05
    23 OT DIIS     0.80E-01   33.6     0.00002301     -6894.9069317516 -5.95E-05
    24 OT DIIS     0.80E-01   30.0     0.00001999     -6894.9069632774 -3.15E-05
    25 OT DIIS     0.80E-01   31.3     0.00001745     -6894.9070197396 -5.65E-05
    26 OT DIIS     0.80E-01   31.9     0.00001676     -6894.9070641038 -4.44E-05
    27 OT DIIS     0.80E-01   33.5     0.00001581     -6894.9070944151 -3.03E-05
    28 OT DIIS     0.80E-01   31.8     0.00001569     -6894.9071468661 -5.25E-05
    29 OT DIIS     0.80E-01   31.5     0.00001576     -6894.9071969916 -5.01E-05
    30 OT DIIS     0.80E-01   30.2     0.00001679     -6894.9072382494 -4.13E-05
    31 OT DIIS     0.80E-01   30.9     0.00001665     -6894.9072912056 -5.30E-05
    32 OT DIIS     0.80E-01   29.8     0.00001672     -6894.9073278558 -3.67E-05
    33 OT DIIS     0.80E-01   26.7     0.00001565     -6894.9073885890 -6.07E-05
    34 OT DIIS     0.80E-01   30.5     0.00001585     -6894.9074100920 -2.15E-05
    35 OT DIIS     0.80E-01   30.5     0.00001494     -6894.9074404528 -3.04E-05
    36 OT DIIS     0.80E-01   28.2     0.00001435     -6894.9074685231 -2.81E-05
    37 OT DIIS     0.80E-01   31.0     0.00001338     -6894.9074958327 -2.73E-05
    38 OT DIIS     0.80E-01   30.5     0.00001324     -6894.9075179938 -2.22E-05
    39 OT DIIS     0.80E-01   27.9     0.00001259     -6894.9075465480 -2.86E-05
    40 OT DIIS     0.80E-01   30.6     0.00001249     -6894.9075708155 -2.43E-05
    41 OT DIIS     0.80E-01   30.6     0.00001217     -6894.9076129222 -4.21E-05
    42 OT DIIS     0.80E-01   28.9     0.00001280     -6894.9076365166 -2.36E-05
    43 OT DIIS     0.80E-01   30.9     0.00001298     -6894.9076762521 -3.97E-05
    44 OT DIIS     0.80E-01   30.7     0.00001336     -6894.9077051823 -2.89E-05
    45 OT DIIS     0.80E-01   28.3     0.00001309     -6894.9077293635 -2.42E-05
    46 OT DIIS     0.80E-01   29.4     0.00001319     -6894.9077487822 -1.94E-05
    47 OT DIIS     0.80E-01   31.0     0.00001223     -6894.9077675388 -1.88E-05
    48 OT DIIS     0.80E-01   30.9     0.00001161     -6894.9077824049 -1.49E-05
    49 OT DIIS     0.80E-01   27.4     0.00001068     -6894.9078075586 -2.52E-05
    50 OT DIIS     0.80E-01   29.3     0.00001057     -6894.9078195536 -1.20E-05
    51 OT DIIS     0.80E-01   30.5     0.00001036     -6894.9078456983 -2.61E-05
    52 OT DIIS     0.80E-01   30.1     0.00001057     -6894.9078679608 -2.23E-05
    53 OT DIIS     0.80E-01   23.4     0.00001077     -6894.9078896535 -2.17E-05
    54 OT DIIS     0.80E-01   30.4     0.00001131     -6894.9079138219 -2.42E-05
    55 OT DIIS     0.80E-01   25.2     0.00001124     -6894.9079348311 -2.10E-05
    56 OT DIIS     0.80E-01   30.5     0.00001131     -6894.9079540983 -1.93E-05
    57 OT DIIS     0.80E-01   30.6     0.00001054     -6894.9079739560 -1.99E-05
    58 OT DIIS     0.80E-01   30.6     0.00001041     -6894.9079806725 -6.72E-06
    59 OT DIIS     0.80E-01   30.3     0.00000981     -6894.9080008189 -2.01E-05
    60 OT DIIS     0.80E-01   25.4     0.00000957     -6894.9080141321 -1.33E-05
    61 OT DIIS     0.80E-01   30.0     0.00000929     -6894.9080266005 -1.25E-05
    62 OT DIIS     0.80E-01   31.2     0.00000928     -6894.9080432583 -1.67E-05
    63 OT DIIS     0.80E-01   30.4     0.00000920     -6894.9080589657 -1.57E-05
    64 OT DIIS     0.80E-01   26.7     0.00000944     -6894.9080783684 -1.94E-05
    65 OT DIIS     0.80E-01   25.8     0.00000930     -6894.9080965578 -1.82E-05
    66 OT DIIS     0.80E-01   30.3     0.00000962     -6894.9081106273 -1.41E-05
    67 OT DIIS     0.80E-01   31.3     0.00000951     -6894.9081311959 -2.06E-05
    68 OT DIIS     0.80E-01   22.8     0.00000950     -6894.9081438765 -1.27E-05
    69 OT DIIS     0.80E-01   31.0     0.00000923     -6894.9081517099 -7.83E-06
    70 OT DIIS     0.80E-01   25.7     0.00000897     -6894.9081641874 -1.25E-05
    71 OT DIIS     0.80E-01   30.7     0.00000851     -6894.9081738706 -9.68E-06
    72 OT DIIS     0.80E-01   30.4     0.00000837     -6894.9081876690 -1.38E-05
    73 OT DIIS     0.80E-01   30.3     0.00000808     -6894.9081986112 -1.09E-05
    74 OT DIIS     0.80E-01   31.0     0.00000817     -6894.9082117283 -1.31E-05
    75 OT DIIS     0.80E-01   26.7     0.00000821     -6894.9082288829 -1.72E-05
    76 OT DIIS     0.80E-01   27.3     0.00000845     -6894.9082448591 -1.60E-05
    77 OT DIIS     0.80E-01   29.5     0.00000868     -6894.9082554582 -1.06E-05
    78 OT DIIS     0.80E-01   30.5     0.00000877     -6894.9082695966 -1.41E-05
    79 OT DIIS     0.80E-01   29.2     0.00000850     -6894.9082784844 -8.89E-06
    80 OT DIIS     0.80E-01   30.5     0.00000838     -6894.9082914522 -1.30E-05
    81 OT DIIS     0.80E-01   27.5     0.00000785     -6894.9082965934 -5.14E-06
    82 OT DIIS     0.80E-01   31.2     0.00000767     -6894.9083063559 -9.76E-06
    83 OT DIIS     0.80E-01   31.2     0.00000742     -6894.9083174108 -1.11E-05
    84 OT DIIS     0.80E-01   32.4     0.00000741     -6894.9083292542 -1.18E-05
    85 OT DIIS     0.80E-01   28.8     0.00000752     -6894.9083386996 -9.45E-06
    86 OT DIIS     0.80E-01   30.0     0.00000765     -6894.9083522589 -1.36E-05
    87 OT DIIS     0.80E-01   29.8     0.00000772     -6894.9083634607 -1.12E-05
    88 OT DIIS     0.80E-01   31.4     0.00000791     -6894.9083790029 -1.55E-05
    89 OT DIIS     0.80E-01   30.6     0.00000773     -6894.9083838898 -4.89E-06
    90 OT DIIS     0.80E-01   30.1     0.00000769     -6894.9083953096 -1.14E-05
    91 OT DIIS     0.80E-01   30.6     0.00000739     -6894.9084031724 -7.86E-06
    92 OT DIIS     0.80E-01   26.3     0.00000721     -6894.9084121281 -8.96E-06
    93 OT DIIS     0.80E-01   26.3     0.00000708     -6894.9084182695 -6.14E-06
    94 OT DIIS     0.80E-01   31.0     0.00000694     -6894.9084275774 -9.31E-06
    95 OT DIIS     0.80E-01   30.7     0.00000686     -6894.9084359102 -8.33E-06
    96 OT DIIS     0.80E-01   28.3     0.00000694     -6894.9084487481 -1.28E-05
    97 OT DIIS     0.80E-01   26.2     0.00000697     -6894.9084550257 -6.28E-06
    98 OT DIIS     0.80E-01   31.9     0.00000709     -6894.9084693800 -1.44E-05
    99 OT DIIS     0.80E-01   30.5     0.00000712     -6894.9084781612 -8.78E-06
   100 OT DIIS     0.80E-01   39.0     0.00000713     -6894.9084882522 -1.01E-05

  Leaving inner SCF loop after reaching   100 steps.


  Electronic density on regular grids:      -2431.9999999641        0.0000000359
  Core density on regular grids:             2431.9999999988       -0.0000000012
  Total charge density on r-space grids:        0.0000000348
  Total charge density g-space grids:           0.0000000348

  Overlap energy of the core charge distribution:               0.02757954006918
  Self energy of the core charge distribution:             -16017.19408509233290
  Core Hamiltonian energy:                                   4334.83437117357789
  Hartree energy:                                            6120.94977814235153
  Exchange-correlation energy:                              -1331.48398131892827
  Dispersion energy:                                           -2.04215069689538

  Total energy:                                             -6894.90848825215835

  outer SCF iter =    2 RMS gradient =   0.71E-05 energy =      -6894.9084882522

  ----------------------------------- OT ---------------------------------------
  Minimizer      : DIIS                : direct inversion
                                         in the iterative subspace
                                         using   7 DIIS vectors
                                         safer DIIS on
  Preconditioner : FULL_SINGLE_INVERSE : inversion of 
                                         H + eS - 2*(Sc)(c^T*H*c+const)(Sc)^T
  Precond_solver : DEFAULT
  stepsize       :    0.08000000                  energy_gap     :    0.08000000
  eps_taylor     :   0.10000E-15                  max_taylor     :             4
  ----------------------------------- OT ---------------------------------------

  Step     Update method      Time    Convergence         Total energy    Change
  ------------------------------------------------------------------------------
     1 OT DIIS     0.80E-01   68.8     0.00000726     -6894.9084940944 -5.84E-06
     2 OT DIIS     0.80E-01   22.2     0.00002339     -6894.9084948493 -7.55E-07
     3 OT DIIS     0.80E-01   28.6     0.00000647     -6894.9085150982 -2.02E-05
     4 OT DIIS     0.80E-01   31.2     0.00000608     -6894.9085199669 -4.87E-06
     5 OT DIIS     0.80E-01   28.0     0.00000802     -6894.9085744522 -5.45E-05
     6 OT DIIS     0.80E-01   30.9     0.00001296     -6894.9089220044 -3.48E-04
     7 OT DIIS     0.80E-01   30.1     0.00001063     -6894.9089525377 -3.05E-05
     8 OT SD       0.80E-01   30.5     0.00001440     -6894.9089714499 -1.89E-05
     9 OT DIIS     0.80E-01   27.4     0.00002971     -6894.9089468265  2.46E-05
    10 OT DIIS     0.80E-01   28.8     0.00000644     -6894.9089610176 -1.42E-05
    11 OT SD       0.80E-01   28.2     0.00000591     -6894.9090124985 -5.15E-05
    12 OT DIIS     0.80E-01   31.5     0.00001526     -6894.9090135966 -1.10E-06
    13 OT DIIS     0.80E-01   30.1     0.00000504     -6894.9090319779 -1.84E-05
    14 OT DIIS     0.80E-01   30.4     0.00000426     -6894.9090404872 -8.51E-06
    15 OT DIIS     0.80E-01   30.1     0.00000470     -6894.9090513958 -1.09E-05
    16 OT DIIS     0.80E-01   29.4     0.00000433     -6894.9090726310 -2.12E-05
    17 OT DIIS     0.80E-01   27.7     0.00000470     -6894.9090968128 -2.42E-05
    18 OT SD       0.80E-01   30.2     0.00000513     -6894.9091261659 -2.94E-05
    19 OT DIIS     0.80E-01   25.9     0.00001884     -6894.9091194987  6.67E-06
    20 OT DIIS     0.80E-01   24.4     0.00000581     -6894.9091730425 -5.35E-05
    21 OT SD       0.80E-01   30.4     0.00000500     -6894.9092220191 -4.90E-05
    22 OT DIIS     0.80E-01   27.6     0.00001983     -6894.9092132229  8.80E-06
    23 OT SD       0.80E-01   28.7     0.00000465     -6894.9092599710 -4.67E-05
    24 OT DIIS     0.80E-01   28.4     0.00001949     -6894.9092506840  9.29E-06
    25 OT DIIS     0.80E-01   28.4     0.00000446     -6894.9092889268 -3.82E-05
    26 OT DIIS     0.80E-01   31.6     0.00000308     -6894.9092927651 -3.84E-06
    27 OT DIIS     0.80E-01   29.0     0.00000386     -6894.9093358927 -4.31E-05
    28 OT SD       0.80E-01   29.1     0.00000384     -6894.9093682427 -3.24E-05
    29 OT SD       0.80E-01   28.7     0.00001018     -6894.9093675688  6.74E-07
    30 OT DIIS     0.80E-01   31.5     0.00005070     -6894.9092785722  8.90E-05
    31 OT DIIS     0.80E-01   28.0     0.00000288     -6894.9093676499 -8.91E-05
    32 OT DIIS     0.80E-01   29.5     0.00000264     -6894.9093700968 -2.45E-06
    33 OT SD       0.80E-01   30.9     0.00000275     -6894.9093785873 -8.49E-06
    34 OT DIIS     0.80E-01   29.3     0.00000763     -6894.9093795991 -1.01E-06
    35 OT DIIS     0.80E-01   31.7     0.00000264     -6894.9093887001 -9.10E-06
    36 OT DIIS     0.80E-01   30.6     0.00000248     -6894.9093932738 -4.57E-06
    37 OT DIIS     0.80E-01   28.5     0.00000269     -6894.9094152855 -2.20E-05
    38 OT SD       0.80E-01   31.3     0.00000284     -6894.9094432274 -2.79E-05
    39 OT DIIS     0.80E-01   30.4     0.00000975     -6894.9094425799  6.48E-07
    40 OT SD       0.80E-01   31.2     0.00000259     -6894.9094637960 -2.12E-05
    41 OT DIIS     0.80E-01   30.5     0.00000792     -6894.9094640385 -2.42E-07
    42 OT DIIS     0.80E-01   30.2     0.00000257     -6894.9094731058 -9.07E-06
    43 OT SD       0.80E-01   30.5     0.00000232     -6894.9094885449 -1.54E-05
    44 OT DIIS     0.80E-01   29.4     0.00000457     -6894.9094900929 -1.55E-06
    45 OT SD       0.80E-01   30.9     0.00000239     -6894.9095126258 -2.25E-05
    46 OT DIIS     0.80E-01   26.6     0.00000635     -6894.9095134299 -8.04E-07
    47 OT DIIS     0.80E-01   30.3     0.00000227     -6894.9095201154 -6.69E-06
    48 OT DIIS     0.80E-01   29.9     0.00000214     -6894.9095402477 -2.01E-05
    49 OT DIIS     0.80E-01   30.4     0.00000212     -6894.9095477486 -7.50E-06
    50 OT DIIS     0.80E-01   29.5     0.00000231     -6894.9095602242 -1.25E-05
    51 OT SD       0.80E-01   31.2     0.00000209     -6894.9095704505 -1.02E-05
    52 OT DIIS     0.80E-01   30.5     0.00000285     -6894.9095722057 -1.76E-06
    53 OT DIIS     0.80E-01   31.6     0.00000216     -6894.9095798481 -7.64E-06
    54 OT DIIS     0.80E-01   27.5     0.00000209     -6894.9095915418 -1.17E-05
    55 OT DIIS     0.80E-01   27.7     0.00000210     -6894.9096082974 -1.68E-05
    56 OT DIIS     0.80E-01   30.2     0.00000216     -6894.9096099792 -1.68E-06
    57 OT DIIS     0.80E-01   23.0     0.00000217     -6894.9096197264 -9.75E-06
    58 OT SD       0.80E-01   31.0     0.00000208     -6894.9096277941 -8.07E-06
    59 OT DIIS     0.80E-01   30.5     0.00000413     -6894.9096291060 -1.31E-06
    60 OT DIIS     0.80E-01   38.0     0.00000211     -6894.9096471731 -1.81E-05
    61 OT DIIS     0.80E-01   35.8     0.00000203     -6894.9096564860 -9.31E-06
    62 OT SD       0.80E-01   30.2     0.00000207     -6894.9096776323 -2.11E-05
    63 OT SD       0.80E-01   30.9     0.00000278     -6894.9096791663 -1.53E-06
    64 OT DIIS     0.80E-01   25.4     0.00000892     -6894.9096778982  1.27E-06
    65 OT SD       0.80E-01   29.2     0.00000197     -6894.9096850210 -7.12E-06
    66 OT DIIS     0.80E-01   24.4     0.00000397     -6894.9096862422 -1.22E-06
    67 OT DIIS     0.80E-01   33.9     0.00000196     -6894.9096983673 -1.21E-05
    68 OT SD       0.80E-01   34.5     0.00000218     -6894.9097258832 -2.75E-05
    69 OT SD       0.80E-01   30.4     0.00000479     -6894.9097267078 -8.25E-07
    70 OT DIIS     0.80E-01   26.6     0.00002309     -6894.9097091236  1.76E-05
    71 OT DIIS     0.80E-01   30.7     0.00000190     -6894.9097275363 -1.84E-05
    72 OT SD       0.80E-01   31.9     0.00000199     -6894.9097409598 -1.34E-05
    73 OT DIIS     0.80E-01   31.8     0.00000471     -6894.9097417714 -8.12E-07
    74 OT DIIS     0.80E-01   29.3     0.00000189     -6894.9097506879 -8.92E-06
    75 OT SD       0.80E-01   30.1     0.00000207     -6894.9097718919 -2.12E-05
    76 OT DIIS     0.80E-01   29.9     0.00000627     -6894.9097720659 -1.74E-07
    77 OT DIIS     0.80E-01   30.9     0.00000192     -6894.9097732642 -1.20E-06
    78 OT SD       0.80E-01   29.8     0.00000189     -6894.9098034903 -3.02E-05
    79 OT SD       0.80E-01   30.6     0.00000275     -6894.9098046083 -1.12E-06
    80 OT DIIS     0.80E-01   28.5     0.00000962     -6894.9098025001  2.11E-06
    81 OT DIIS     0.80E-01   31.6     0.00000191     -6894.9098244292 -2.19E-05
    82 OT SD       0.80E-01   30.4     0.00000198     -6894.9098329359 -8.51E-06
    83 OT SD       0.80E-01   32.2     0.00000419     -6894.9098336559 -7.20E-07
    84 OT DIIS     0.80E-01   25.9     0.00002054     -6894.9098201422  1.35E-05
    85 OT DIIS     0.80E-01   26.9     0.00000169     -6894.9098355244 -1.54E-05
    86 OT SD       0.80E-01   33.3     0.00000166     -6894.9098370849 -1.56E-06
    87 OT DIIS     0.80E-01   37.4     0.00000307     -6894.9098380461 -9.61E-07
    88 OT DIIS     0.80E-01   31.9     0.00000170     -6894.9098424079 -4.36E-06
    89 OT DIIS     0.80E-01   29.3     0.00000162     -6894.9098447587 -2.35E-06
    90 OT DIIS     0.80E-01   31.2     0.00000181     -6894.9098463905 -1.63E-06
    91 OT DIIS     0.80E-01   30.7     0.00000176     -6894.9098526046 -6.21E-06
    92 OT DIIS     0.80E-01   31.8     0.00000154     -6894.9098639181 -1.13E-05
    93 OT SD       0.80E-01   31.2     0.00000184     -6894.9098658991 -1.98E-06
    94 OT DIIS     0.80E-01   30.7     0.00000652     -6894.9098654922  4.07E-07
    95 OT DIIS     0.80E-01   28.5     0.00000167     -6894.9098733173 -7.83E-06
    96 OT SD       0.80E-01   30.7     0.00000164     -6894.9098787442 -5.43E-06
    97 OT DIIS     0.80E-01   31.7     0.00000484     -6894.9098789528 -2.09E-07
    98 OT DIIS     0.80E-01   30.4     0.00000159     -6894.9098872166 -8.26E-06
    99 OT DIIS     0.80E-01   30.1     0.00000167     -6894.9098930436 -5.83E-06
   100 OT SD       0.80E-01   24.7     0.00000149     -6894.9098959187 -2.88E-06

  Leaving inner SCF loop after reaching   100 steps.


  Electronic density on regular grids:      -2431.9999999641        0.0000000359
  Core density on regular grids:             2431.9999999988       -0.0000000012
  Total charge density on r-space grids:        0.0000000348
  Total charge density g-space grids:           0.0000000348

  Overlap energy of the core charge distribution:               0.02757954006918
  Self energy of the core charge distribution:             -16017.19408509233290
  Core Hamiltonian energy:                                   4334.82375200948172
  Hartree energy:                                            6120.95612151297701
  Exchange-correlation energy:                              -1331.48111319203235
  Dispersion energy:                                           -2.04215069689538

  Total energy:                                             -6894.90989591873404

  outer SCF iter =    3 RMS gradient =   0.15E-05 energy =      -6894.9098959187

  ----------------------------------- OT ---------------------------------------
  Minimizer      : DIIS                : direct inversion
                                         in the iterative subspace
                                         using   7 DIIS vectors
                                         safer DIIS on
  Preconditioner : FULL_SINGLE_INVERSE : inversion of 
                                         H + eS - 2*(Sc)(c^T*H*c+const)(Sc)^T
  Precond_solver : DEFAULT
  stepsize       :    0.08000000                  energy_gap     :    0.08000000
  eps_taylor     :   0.10000E-15                  max_taylor     :             4
  ----------------------------------- OT ---------------------------------------

  Step     Update method      Time    Convergence         Total energy    Change
  ------------------------------------------------------------------------------
     1 OT DIIS     0.80E-01   65.7     0.00000323     -6894.9098964975 -5.79E-07
     2 OT DIIS     0.80E-01   30.1     0.00001627     -6894.9098882027  8.29E-06
     3 OT DIIS     0.80E-01   30.8     0.00000249     -6894.9098977001 -9.50E-06
     4 OT DIIS     0.80E-01   29.7     0.00000141     -6894.9098980569 -3.57E-07
     5 OT DIIS     0.80E-01   30.5     0.00000137     -6894.9098983001 -2.43E-07
     6 OT DIIS     0.80E-01   27.4     0.00000141     -6894.9098994592 -1.16E-06
     7 OT DIIS     0.80E-01   29.9     0.00000141     -6894.9099037213 -4.26E-06
     8 OT SD       0.80E-01   25.6     0.00000137     -6894.9099078992 -4.18E-06
     9 OT DIIS     0.80E-01   30.0     0.00000187     -6894.9099087100 -8.11E-07
    10 OT DIIS     0.80E-01   27.5     0.00000136     -6894.9099132630 -4.55E-06
    11 OT DIIS     0.80E-01   29.5     0.00000134     -6894.9099154180 -2.16E-06
    12 OT DIIS     0.80E-01   29.4     0.00000135     -6894.9099177314 -2.31E-06
    13 OT DIIS     0.80E-01   30.4     0.00000135     -6894.9099223988 -4.67E-06
    14 OT DIIS     0.80E-01   30.3     0.00000134     -6894.9099270221 -4.62E-06
    15 OT DIIS     0.80E-01   29.8     0.00000134     -6894.9099308851 -3.86E-06
    16 OT DIIS     0.80E-01   24.0     0.00000134     -6894.9099407468 -9.86E-06
    17 OT DIIS     0.80E-01   30.1     0.00000132     -6894.9099424181 -1.67E-06
    18 OT DIIS     0.80E-01   25.4     0.00000133     -6894.9099436791 -1.26E-06
    19 OT DIIS     0.80E-01   30.1     0.00000139     -6894.9099508468 -7.17E-06
    20 OT DIIS     0.80E-01   28.7     0.00000148     -6894.9099638168 -1.30E-05
    21 OT DIIS     0.80E-01   25.8     0.00000139     -6894.9099661569 -2.34E-06
    22 OT DIIS     0.80E-01   30.3     0.00000153     -6894.9099752740 -9.12E-06
    23 OT SD       0.80E-01   27.8     0.00000167     -6894.9099869613 -1.17E-05
    24 OT SD       0.80E-01   26.4     0.00000333     -6894.9099872732 -3.12E-07
    25 OT DIIS     0.80E-01   30.5     0.00001286     -6894.9099814605  5.81E-06
    26 OT DIIS     0.80E-01   29.6     0.00000139     -6894.9099879037 -6.44E-06
    27 OT SD       0.80E-01   31.3     0.00000141     -6894.9099968887 -8.98E-06
    28 OT DIIS     0.80E-01   30.3     0.00000334     -6894.9099972394 -3.51E-07
    29 OT DIIS     0.80E-01   29.6     0.00000137     -6894.9100028161 -5.58E-06
    30 OT SD       0.80E-01   30.4     0.00000145     -6894.9100101883 -7.37E-06
    31 OT DIIS     0.80E-01   32.3     0.00000480     -6894.9100101379  5.05E-08
    32 OT DIIS     0.80E-01   24.0     0.00000141     -6894.9100205723 -1.04E-05
    33 OT DIIS     0.80E-01   24.8     0.00000139     -6894.9100243528 -3.78E-06
    34 OT SD       0.80E-01   30.9     0.00000133     -6894.9100280502 -3.70E-06
    35 OT DIIS     0.80E-01   26.8     0.00000257     -6894.9100284854 -4.35E-07
    36 OT DIIS     0.80E-01   28.9     0.00000141     -6894.9100311635 -2.68E-06
    37 OT SD       0.80E-01   29.2     0.00000128     -6894.9100338243 -2.66E-06
    38 OT DIIS     0.80E-01   27.5     0.00000315     -6894.9100341581 -3.34E-07
    39 OT DIIS     0.80E-01   29.8     0.00000127     -6894.9100374394 -3.28E-06
    40 OT DIIS     0.80E-01   30.0     0.00000135     -6894.9100414357 -4.00E-06
    41 OT SD       0.80E-01   31.0     0.00000144     -6894.9100565179 -1.51E-05
    42 OT SD       0.80E-01   29.7     0.00000303     -6894.9100567864 -2.69E-07
    43 OT DIIS     0.80E-01   29.9     0.00001386     -6894.9100505112  6.28E-06
    44 OT DIIS     0.80E-01   30.0     0.00000120     -6894.9100603995 -9.89E-06
    45 OT DIIS     0.80E-01   29.9     0.00000113     -6894.9100615109 -1.11E-06
    46 OT SD       0.80E-01   25.1     0.00000130     -6894.9100694020 -7.89E-06
    47 OT DIIS     0.80E-01   29.7     0.00000353     -6894.9100695514 -1.49E-07
    48 OT SD       0.80E-01   30.2     0.00000130     -6894.9100825115 -1.30E-05
    49 OT SD       0.80E-01   30.9     0.00000310     -6894.9100827312 -2.20E-07
    50 OT DIIS     0.80E-01   30.1     0.00001553     -6894.9100747915  7.94E-06
    51 OT DIIS     0.80E-01   24.3     0.00000119     -6894.9100908745 -1.61E-05
    52 OT DIIS     0.80E-01   30.7     0.00000130     -6894.9100962522 -5.38E-06
    53 OT SD       0.80E-01   26.7     0.00000136     -6894.9101002224 -3.97E-06
    54 OT SD       0.80E-01   30.2     0.00000301     -6894.9101004308 -2.08E-07
    55 OT DIIS     0.80E-01   29.5     0.00001414     -6894.9100938178  6.61E-06
    56 OT SD       0.80E-01   30.1     0.00000108     -6894.9100977586 -3.94E-06
    57 OT SD       0.80E-01   30.4     0.00000183     -6894.9100981834 -4.25E-07
    58 OT DIIS     0.80E-01   29.6     0.00000807     -6894.9100963868  1.80E-06
    59 OT SD       0.80E-01   30.6     0.00000104     -6894.9100979255 -1.54E-06
    60 OT DIIS     0.80E-01   31.2     0.00000137     -6894.9100983995 -4.74E-07
    61 OT DIIS     0.80E-01   27.2     0.00000104     -6894.9100985211 -1.22E-07
    62 OT DIIS     0.80E-01   28.4     0.00000103     -6894.9100988865 -3.65E-07
    63 OT DIIS     0.80E-01   29.8     0.00000102     -6894.9100992147 -3.28E-07
    64 OT DIIS     0.80E-01   31.1     0.00000104     -6894.9100997875 -5.73E-07
    65 OT DIIS     0.80E-01   29.8     0.00000100     -6894.9101002285 -4.41E-07

  *** SCF run converged in    65 steps ***


  Electronic density on regular grids:      -2432.0000002413       -0.0000002413
  Core density on regular grids:             2431.9999999988       -0.0000000012
  Total charge density on r-space grids:       -0.0000002424
  Total charge density g-space grids:          -0.0000002424

  Overlap energy of the core charge distribution:               0.02757954006918
  Self energy of the core charge distribution:             -16017.19408509233290
  Core Hamiltonian energy:                                   4334.82373540858043
  Hartree energy:                                            6120.95536790914957
  Exchange-correlation energy:                              -1331.48054729710043
  Dispersion energy:                                           -2.04215069689538

  Total energy:                                             -6894.91010022853061

  outer SCF iter =    4 RMS gradient =   0.10E-05 energy =      -6894.9101002285
  outer SCF loop converged in   4 iterations or  365 steps


 ENERGY| Total FORCE_EVAL ( QS ) energy [hartree]          -6894.910100623064864

 Number of electrons:                                                       2432
 Number of occupied orbitals:                                               1216
 Number of molecular orbitals:                                              1216

 Number of orbital functions:                                               4983
 Number of independent orbital functions:                                   4983

 Extrapolation method: ASPC


 SCF WAVEFUNCTION OPTIMIZATION

  ----------------------------------- OT ---------------------------------------
  Minimizer      : DIIS                : direct inversion
                                         in the iterative subspace
                                         using   7 DIIS vectors
                                         safer DIIS on
  Preconditioner : FULL_SINGLE_INVERSE : inversion of 
                                         H + eS - 2*(Sc)(c^T*H*c+const)(Sc)^T
  Precond_solver : DEFAULT
  stepsize       :    0.08000000                  energy_gap     :    0.08000000
  eps_taylor     :   0.10000E-15                  max_taylor     :             4
  ----------------------------------- OT ---------------------------------------

  Step     Update method      Time    Convergence         Total energy    Change
  ------------------------------------------------------------------------------
     1 OT DIIS     0.80E-01   34.7     0.00494832     -6896.4992810539 -6.90E+03
     2 OT DIIS     0.80E-01   31.6     0.00362351     -6905.7921189309 -9.29E+00
     3 OT DIIS     0.80E-01   30.4     0.00340899     -6910.2093600864 -4.42E+00
     4 OT DIIS     0.80E-01   28.4     0.00194326     -6912.8072532726 -2.60E+00
     5 OT DIIS     0.80E-01   27.8     0.00156628     -6913.5193257657 -7.12E-01
     6 OT DIIS     0.80E-01   30.7     0.00145726     -6913.7217425306 -2.02E-01
     7 OT DIIS     0.80E-01   30.4     0.00084909     -6913.8754231774 -1.54E-01
     8 OT DIIS     0.80E-01   25.5     0.00058585     -6913.9760546255 -1.01E-01
     9 OT DIIS     0.80E-01   30.4     0.00041248     -6914.0332802606 -5.72E-02
    10 OT DIIS     0.80E-01   29.7     0.00034373     -6914.0661615476 -3.29E-02
    11 OT DIIS     0.80E-01   31.1     0.00026150     -6914.1004352137 -3.43E-02
    12 OT DIIS     0.80E-01   25.7     0.00022463     -6914.1152416176 -1.48E-02
    13 OT DIIS     0.80E-01   25.9     0.00021009     -6914.1376615279 -2.24E-02
    14 OT DIIS     0.80E-01   30.1     0.00018872     -6914.1542911702 -1.66E-02
    15 OT DIIS     0.80E-01   30.6     0.00018408     -6914.1688921920 -1.46E-02
    16 OT DIIS     0.80E-01   27.7     0.00016964     -6914.1841863598 -1.53E-02
    17 OT DIIS     0.80E-01   30.7     0.00015959     -6914.1997201673 -1.55E-02
    18 OT DIIS     0.80E-01   26.9     0.00015745     -6914.2156293814 -1.59E-02
    19 OT DIIS     0.80E-01   31.0     0.00015087     -6914.2276746326 -1.20E-02
    20 OT DIIS     0.80E-01   28.1     0.00014364     -6914.2378983170 -1.02E-02
    21 OT DIIS     0.80E-01   29.0     0.00014166     -6914.2550116936 -1.71E-02
    22 OT DIIS     0.80E-01   29.5     0.00014110     -6914.2663982447 -1.14E-02
    23 OT DIIS     0.80E-01   31.1     0.00013780     -6914.2762766407 -9.88E-03
    24 OT DIIS     0.80E-01   32.2     0.00012635     -6914.2873162179 -1.10E-02
    25 OT DIIS     0.80E-01   30.5     0.00012006     -6914.2950229223 -7.71E-03
    26 OT DIIS     0.80E-01   31.5     0.00013826     -6914.3185357458 -2.35E-02
    27 OT DIIS     0.80E-01   31.9     0.00012161     -6914.3286650398 -1.01E-02
    28 OT DIIS     0.80E-01   33.2     0.00013504     -6914.3387768790 -1.01E-02
    29 OT DIIS     0.80E-01   35.0     0.00012093     -6914.3464922689 -7.72E-03
    30 OT DIIS     0.80E-01   35.8     0.00010779     -6914.3577447373 -1.13E-02
    31 OT DIIS     0.80E-01   22.4     0.00009152     -6914.3659236683 -8.18E-03
    32 OT DIIS     0.80E-01   33.8     0.00007006     -6914.3719088326 -5.99E-03
    33 OT DIIS     0.80E-01   31.2     0.00007765     -6914.3802323525 -8.32E-03
    34 OT DIIS     0.80E-01   28.5     0.00007494     -6914.3819405414 -1.71E-03
    35 OT DIIS     0.80E-01   27.0     0.00007269     -6914.3836603553 -1.72E-03
    36 OT DIIS     0.80E-01   30.3     0.00006394     -6914.3849910900 -1.33E-03
    37 OT DIIS     0.80E-01   26.7     0.00005701     -6914.3864398017 -1.45E-03
    38 OT DIIS     0.80E-01   30.8     0.00005457     -6914.3883197347 -1.88E-03
    39 OT DIIS     0.80E-01   30.1     0.00005396     -6914.3911713069 -2.85E-03
    40 OT DIIS     0.80E-01   28.1     0.00005235     -6914.3922733099 -1.10E-03
    41 OT DIIS     0.80E-01   29.2     0.00004992     -6914.3968335867 -4.56E-03
    42 OT DIIS     0.80E-01   27.8     0.00004918     -6914.3979498421 -1.12E-03
    43 OT DIIS     0.80E-01   31.9     0.00005211     -6914.4008777980 -2.93E-03
    44 OT DIIS     0.80E-01   30.8     0.00004830     -6914.4010882307 -2.10E-04
    45 OT DIIS     0.80E-01   30.1     0.00004902     -6914.4020049141 -9.17E-04
    46 OT DIIS     0.80E-01   32.6     0.00004829     -6914.4032395946 -1.23E-03
    47 OT SD       0.80E-01   31.3     0.00004812     -6914.4039447845 -7.05E-04
    48 OT SD       0.80E-01   31.5     0.00004916     -6914.4050532433 -1.11E-03
    49 OT SD       0.80E-01   32.5     0.00005587     -6914.4061247383 -1.07E-03
    50 OT SD       0.80E-01   30.6     0.00009088     -6914.4069093070 -7.85E-04
    51 OT DIIS     0.80E-01   30.7     0.00021494     -6914.4055596814  1.35E-03
    52 OT SD       0.80E-01   31.2     0.00004804     -6914.4038279794  1.73E-03
    53 OT SD       0.80E-01   31.0     0.00004887     -6914.4049366079 -1.11E-03
    54 OT SD       0.80E-01   30.8     0.00005427     -6914.4060168762 -1.08E-03
    55 OT SD       0.80E-01   25.6     0.00008410     -6914.4068679595 -8.51E-04
    56 OT SD       0.80E-01   25.7     0.00019496     -6914.4059848795  8.83E-04
    57 OT DIIS     0.80E-01   34.5     0.00051815     -6914.3920928415  1.39E-02
    58 OT SD       0.80E-01   28.0     0.00004823     -6914.4027845621 -1.07E-02
    59 OT SD       0.80E-01   26.9     0.00004844     -6914.4038923481 -1.11E-03
    60 OT SD       0.80E-01   32.2     0.00005039     -6914.4049888441 -1.10E-03
    61 OT SD       0.80E-01   31.7     0.00006167     -6914.4060173426 -1.03E-03
    62 OT SD       0.80E-01   32.0     0.00011295     -6914.4065442299 -5.27E-04
    63 OT DIIS     0.80E-01   27.9     0.00027915     -6914.4033998631  3.14E-03
    64 OT SD       0.80E-01   31.3     0.00004799     -6914.4010893267  2.31E-03
    65 OT SD       0.80E-01   28.4     0.00004783     -6914.4021895441 -1.10E-03
    66 OT SD       0.80E-01   25.5     0.00004867     -6914.4032824263 -1.09E-03
    67 OT SD       0.80E-01   30.1     0.00005421     -6914.4043475604 -1.07E-03
    68 OT SD       0.80E-01   22.9     0.00008452     -6914.4051808966 -8.33E-04
    69 OT SD       0.80E-01   32.9     0.00019700     -6914.4042446256  9.36E-04
    70 OT DIIS     0.80E-01   32.0     0.00052662     -6914.3898938388  1.44E-02
    71 OT SD       0.80E-01   30.8     0.00004866     -6914.3979990293 -8.11E-03
    72 OT SD       0.80E-01   34.1     0.00004760     -6914.3990926072 -1.09E-03
    73 OT SD       0.80E-01   28.1     0.00004806     -6914.4001626681 -1.07E-03
    74 OT SD       0.80E-01   31.0     0.00005108     -6914.4012195392 -1.06E-03
    75 OT SD       0.80E-01   27.3     0.00006787     -6914.4021698348 -9.50E-04
    76 OT SD       0.80E-01   31.4     0.00013817     -6914.4023142389 -1.44E-04
    77 OT DIIS     0.80E-01   27.8     0.00035786     -6914.3963810195  5.93E-03
    78 OT SD       0.80E-01   30.7     0.00004963     -6914.3940830993  2.30E-03
    79 OT SD       0.80E-01   27.9     0.00004752     -6914.3951673434 -1.08E-03
    80 OT SD       0.80E-01   31.1     0.00005082     -6914.3961793048 -1.01E-03
    81 OT SD       0.80E-01   31.2     0.00007150     -6914.3970499363 -8.71E-04
    82 OT SD       0.80E-01   28.7     0.00015572     -6914.3968596669  1.90E-04
    83 OT DIIS     0.80E-01   25.9     0.00041497     -6914.3884453947  8.41E-03
    84 OT SD       0.80E-01   29.3     0.00004652     -6914.3935487445 -5.10E-03
    85 OT SD       0.80E-01   30.1     0.00004827     -6914.3945567943 -1.01E-03
    86 OT SD       0.80E-01   31.0     0.00006171     -6914.3954789254 -9.22E-04
    87 OT SD       0.80E-01   29.0     0.00012388     -6914.3957657203 -2.87E-04
    88 OT DIIS     0.80E-01   31.1     0.00032686     -6914.3909943325  4.77E-03
    89 OT SD       0.80E-01   30.9     0.00004628     -6914.3925070910 -1.51E-03
    90 OT SD       0.80E-01   30.2     0.00004868     -6914.3934926403 -9.86E-04
    91 OT SD       0.80E-01   26.5     0.00006397     -6914.3943776100 -8.85E-04
    92 OT SD       0.80E-01   30.7     0.00012801     -6914.3945742580 -1.97E-04
    93 OT DIIS     0.80E-01   26.1     0.00032569     -6914.3897255312  4.85E-03
    94 OT DIIS     0.80E-01   30.2     0.00004622     -6914.3912320749 -1.51E-03
    95 OT SD       0.80E-01   31.0     0.00004568     -6914.3927538404 -1.52E-03
    96 OT SD       0.80E-01   32.1     0.00004823     -6914.3937236688 -9.70E-04
    97 OT SD       0.80E-01   30.4     0.00006185     -6914.3946126800 -8.89E-04
    98 OT SD       0.80E-01   32.1     0.00011760     -6914.3949395282 -3.27E-04
    99 OT DIIS     0.80E-01   32.8     0.00028859     -6914.3913382585  3.60E-03
   100 OT SD       0.80E-01   33.8     0.00004567     -6914.3895337470  1.80E-03

  Leaving inner SCF loop after reaching   100 steps.


  Electronic density on regular grids:      -2431.9999999614        0.0000000386
  Core density on regular grids:             2431.9999999988       -0.0000000012
  Total charge density on r-space grids:        0.0000000374
  Total charge density g-space grids:           0.0000000374

  Overlap energy of the core charge distribution:               0.00526642733462
  Self energy of the core charge distribution:             -16017.19408509233290
  Core Hamiltonian energy:                                   4292.52867817498009
  Hartree energy:                                            6138.87097482983063
  Exchange-correlation energy:                              -1326.56100813794046
  Dispersion energy:                                           -2.03935994885856

  Total energy:                                             -6914.38953374698667

  outer SCF iter =    1 RMS gradient =   0.46E-04 energy =      -6914.3895337470

  ----------------------------------- OT ---------------------------------------
  Minimizer      : DIIS                : direct inversion
                                         in the iterative subspace
                                         using   7 DIIS vectors
                                         safer DIIS on
  Preconditioner : FULL_SINGLE_INVERSE : inversion of 
                                         H + eS - 2*(Sc)(c^T*H*c+const)(Sc)^T
  Precond_solver : DEFAULT
  stepsize       :    0.08000000                  energy_gap     :    0.08000000
  eps_taylor     :   0.10000E-15                  max_taylor     :             4
  ----------------------------------- OT ---------------------------------------

  Step     Update method      Time    Convergence         Total energy    Change
  ------------------------------------------------------------------------------
     1 OT DIIS     0.80E-01   73.1     0.00012118     -6914.3904943318 -9.61E-04
     2 OT DIIS     0.80E-01   29.8     0.00013149     -6914.3972721212 -6.78E-03
     3 OT DIIS     0.80E-01   20.1     0.00012496     -6914.3992989571 -2.03E-03
     4 OT SD       0.80E-01   30.5     0.00012264     -6914.4002832744 -9.84E-04
     5 OT SD       0.80E-01   25.7     0.00013387     -6914.4074811124 -7.20E-03
     6 OT SD       0.80E-01   30.5     0.00028182     -6914.4124712729 -4.99E-03
     7 OT DIIS     0.80E-01   30.1     0.00128039     -6914.3569047005  5.56E-02
     8 OT DIIS     0.80E-01   30.3     0.00016590     -6914.3993054780 -4.24E-02
     9 OT DIIS     0.80E-01   30.4     0.00023221     -6914.4103422509 -1.10E-02
    10 OT DIIS     0.80E-01   26.5     0.00014129     -6914.4111879150 -8.46E-04
    11 OT DIIS     0.80E-01   27.3     0.00015431     -6914.4113060482 -1.18E-04
    12 OT SD       0.80E-01   24.6     0.00013893     -6914.4357368223 -2.44E-02
    13 OT DIIS     0.80E-01   30.7     0.00032417     -6914.4364869153 -7.50E-04
    14 OT DIIS     0.80E-01   32.8     0.00012408     -6914.4459215812 -9.43E-03
    15 OT DIIS     0.80E-01   30.6     0.00012173     -6914.4521629192 -6.24E-03
    16 OT DIIS     0.80E-01   30.2     0.00023742     -6914.4513792582  7.84E-04
    17 OT DIIS     0.80E-01   27.3     0.00022855     -6914.4384074922  1.30E-02
    18 OT DIIS     0.80E-01   27.2     0.00006504     -6914.4555236264 -1.71E-02
    19 OT DIIS     0.80E-01   27.3     0.00006854     -6914.4573862662 -1.86E-03
    20 OT DIIS     0.80E-01   30.6     0.00005114     -6914.4583774994 -9.91E-04
    21 OT DIIS     0.80E-01   31.9     0.00004094     -6914.4592735472 -8.96E-04
    22 OT DIIS     0.80E-01   32.2     0.00006027     -6914.4590703945  2.03E-04
    23 OT DIIS     0.80E-01   27.9     0.00003731     -6914.4596371281 -5.67E-04
    24 OT DIIS     0.80E-01   29.5     0.00003193     -6914.4603014221 -6.64E-04
    25 OT DIIS     0.80E-01   29.5     0.00003418     -6914.4609586975 -6.57E-04
    26 OT DIIS     0.80E-01   30.5     0.00002666     -6914.4609215654  3.71E-05
    27 OT DIIS     0.80E-01   30.3     0.00002523     -6914.4620960092 -1.17E-03
    28 OT DIIS     0.80E-01   22.9     0.00002446     -6914.4623331852 -2.37E-04
    29 OT DIIS     0.80E-01   30.4     0.00002605     -6914.4625477726 -2.15E-04
    30 OT DIIS     0.80E-01   25.7     0.00002184     -6914.4632664463 -7.19E-04
    31 OT DIIS     0.80E-01   30.6     0.00002148     -6914.4636744598 -4.08E-04
    32 OT DIIS     0.80E-01   31.0     0.00001952     -6914.4643662035 -6.92E-04
    33 OT DIIS     0.80E-01   31.0     0.00001803     -6914.4646093760 -2.43E-04
    34 OT DIIS     0.80E-01   30.7     0.00002500     -6914.4647121455 -1.03E-04
    35 OT DIIS     0.80E-01   27.2     0.00001685     -6914.4650709826 -3.59E-04
    36 OT DIIS     0.80E-01   31.0     0.00001739     -6914.4653127158 -2.42E-04
    37 OT DIIS     0.80E-01   32.2     0.00001502     -6914.4654808572 -1.68E-04
    38 OT DIIS     0.80E-01   31.5     0.00001456     -6914.4657220489 -2.41E-04
    39 OT DIIS     0.80E-01   29.0     0.00001499     -6914.4660072100 -2.85E-04
    40 OT DIIS     0.80E-01   31.0     0.00001364     -6914.4662883658 -2.81E-04
    41 OT DIIS     0.80E-01   30.6     0.00001529     -6914.4664605219 -1.72E-04
    42 OT DIIS     0.80E-01   35.7     0.00001661     -6914.4666184190 -1.58E-04
    43 OT DIIS     0.80E-01   27.6     0.00001576     -6914.4668565629 -2.38E-04
    44 OT DIIS     0.80E-01   30.8     0.00001352     -6914.4669716942 -1.15E-04
    45 OT DIIS     0.80E-01   32.7     0.00001465     -6914.4671384107 -1.67E-04
    46 OT DIIS     0.80E-01   31.3     0.00001208     -6914.4672360294 -9.76E-05
    47 OT DIIS     0.80E-01   33.8     0.00000884     -6914.4673859336 -1.50E-04
    48 OT DIIS     0.80E-01   34.0     0.00001080     -6914.4674694065 -8.35E-05
    49 OT DIIS     0.80E-01   33.6     0.00000851     -6914.4675297457 -6.03E-05
    50 OT DIIS     0.80E-01   31.9     0.00000856     -6914.4676901099 -1.60E-04
    51 OT DIIS     0.80E-01   32.5     0.00000879     -6914.4677157986 -2.57E-05
    52 OT DIIS     0.80E-01   34.2     0.00000794     -6914.4678120646 -9.63E-05
    53 OT DIIS     0.80E-01   31.7     0.00000859     -6914.4678369491 -2.49E-05
    54 OT DIIS     0.80E-01   25.5     0.00000673     -6914.4678899769 -5.30E-05
    55 OT DIIS     0.80E-01   30.5     0.00000703     -6914.4679318049 -4.18E-05
    56 OT DIIS     0.80E-01   34.2     0.00000630     -6914.4679623526 -3.05E-05
    57 OT DIIS     0.80E-01   29.6     0.00000648     -6914.4680541658 -9.18E-05
    58 OT DIIS     0.80E-01   30.6     0.00000632     -6914.4681075394 -5.34E-05
    59 OT DIIS     0.80E-01   28.4     0.00000573     -6914.4681385134 -3.10E-05
    60 OT DIIS     0.80E-01   31.0     0.00000490     -6914.4681720486 -3.35E-05
    61 OT DIIS     0.80E-01   31.3     0.00000526     -6914.4681837042 -1.17E-05
    62 OT DIIS     0.80E-01   26.9     0.00000468     -6914.4682058174 -2.21E-05
    63 OT DIIS     0.80E-01   31.5     0.00000440     -6914.4682160959 -1.03E-05
    64 OT DIIS     0.80E-01   30.7     0.00000420     -6914.4682539417 -3.78E-05
    65 OT DIIS     0.80E-01   29.7     0.00000380     -6914.4682746928 -2.08E-05
    66 OT DIIS     0.80E-01   24.0     0.00000359     -6914.4682824602 -7.77E-06
    67 OT DIIS     0.80E-01   31.4     0.00000377     -6914.4682870147 -4.55E-06
    68 OT DIIS     0.80E-01   29.5     0.00000344     -6914.4683013747 -1.44E-05
    69 OT DIIS     0.80E-01   30.5     0.00000313     -6914.4683062224 -4.85E-06
    70 OT DIIS     0.80E-01   31.3     0.00000289     -6914.4683188500 -1.26E-05
    71 OT DIIS     0.80E-01   30.6     0.00000297     -6914.4683387144 -1.99E-05
    72 OT DIIS     0.80E-01   25.7     0.00000255     -6914.4683422374 -3.52E-06
    73 OT DIIS     0.80E-01   30.7     0.00000251     -6914.4683499871 -7.75E-06
    74 OT DIIS     0.80E-01   30.9     0.00000250     -6914.4683546964 -4.71E-06
    75 OT DIIS     0.80E-01   26.1     0.00000259     -6914.4683578294 -3.13E-06
    76 OT DIIS     0.80E-01   30.8     0.00000234     -6914.4683642788 -6.45E-06
    77 OT DIIS     0.80E-01   25.3     0.00000230     -6914.4683747406 -1.05E-05
    78 OT DIIS     0.80E-01   30.4     0.00000188     -6914.4683815208 -6.78E-06
    79 OT DIIS     0.80E-01   30.8     0.00000172     -6914.4683840995 -2.58E-06
    80 OT DIIS     0.80E-01   27.4     0.00000173     -6914.4683871763 -3.08E-06
    81 OT DIIS     0.80E-01   33.2     0.00000161     -6914.4683901548 -2.98E-06
    82 OT DIIS     0.80E-01   27.3     0.00000166     -6914.4683943290 -4.17E-06
    83 OT DIIS     0.80E-01   30.6     0.00000167     -6914.4683978970 -3.57E-06
    84 OT DIIS     0.80E-01   26.1     0.00000156     -6914.4684002673 -2.37E-06
    85 OT DIIS     0.80E-01   31.7     0.00000127     -6914.4684016709 -1.40E-06
    86 OT DIIS     0.80E-01   28.5     0.00000118     -6914.4684033808 -1.71E-06
    87 OT DIIS     0.80E-01   31.0     0.00000123     -6914.4684045174 -1.14E-06
    88 OT DIIS     0.80E-01   31.3     0.00000118     -6914.4684059448 -1.43E-06
    89 OT DIIS     0.80E-01   30.9     0.00000111     -6914.4684074837 -1.54E-06
    90 OT DIIS     0.80E-01   31.5     0.00000108     -6914.4684091149 -1.63E-06
    91 OT DIIS     0.80E-01   28.7     0.00000099     -6914.4684098817 -7.67E-07

  *** SCF run converged in    91 steps ***


  Electronic density on regular grids:      -2431.9999999617        0.0000000383
  Core density on regular grids:             2431.9999999988       -0.0000000012
  Total charge density on r-space grids:        0.0000000371
  Total charge density g-space grids:           0.0000000371

  Overlap energy of the core charge distribution:               0.00526642733462
  Self energy of the core charge distribution:             -16017.19408509233290
  Core Hamiltonian energy:                                   4291.85740781682853
  Hartree energy:                                            6139.37339692824753
  Exchange-correlation energy:                              -1326.47103601294089
  Dispersion energy:                                           -2.03935994885856

  Total energy:                                             -6914.46840988172062

  outer SCF iter =    2 RMS gradient =   0.99E-06 energy =      -6914.4684098817
  outer SCF loop converged in   2 iterations or  191 steps


 ENERGY| Total FORCE_EVAL ( QS ) energy [hartree]          -6914.468410559905351

 OPT| **************************************************************************
 OPT| Step number                                                              1
 OPT| Optimization method                                                  LBFGS
 OPT| Total energy [hartree]                                    -6914.4684105599
 OPT| Effective energy change [hartree]                           -19.5583099368
 OPT| Decrease in energy                                                     YES
 OPT| Used time [s]                                                    16682.471
 OPT|
 OPT| Maximum step size                                             0.4724315332
 OPT| Convergence limit for maximum step size                       0.0030000000
 OPT| Maximum step size is converged                                          NO
 OPT|
 OPT| RMS step size                                                 0.1005350781
 OPT| Convergence limit for RMS step size                           0.0015000000
 OPT| RMS step size is converged                                              NO
 OPT|
 OPT| Maximum gradient                                              1.1298851575
 OPT| Convergence limit for maximum gradient                        0.0010000000
 OPT| Maximum gradient is converged                                           NO
 OPT|
 OPT| RMS gradient                                                  0.1325015281
 OPT| Convergence limit for RMS gradient                            0.0005000000
 OPT| RMS gradient is converged                                               NO
 OPT| **************************************************************************
 OPT| Estimated peak process memory after this step [MiB]                  11326

 --------------------------
 OPTIMIZATION STEP:      2
 --------------------------

 Number of electrons:                                                       2432
 Number of occupied orbitals:                                               1216
 Number of molecular orbitals:                                              1216

 Number of orbital functions:                                               4983
 Number of independent orbital functions:                                   4983

 Extrapolation method: ASPC


 SCF WAVEFUNCTION OPTIMIZATION

  ----------------------------------- OT ---------------------------------------
  Minimizer      : DIIS                : direct inversion
                                         in the iterative subspace
                                         using   7 DIIS vectors
                                         safer DIIS on
  Preconditioner : FULL_SINGLE_INVERSE : inversion of 
                                         H + eS - 2*(Sc)(c^T*H*c+const)(Sc)^T
  Precond_solver : DEFAULT
  stepsize       :    0.08000000                  energy_gap     :    0.08000000
  eps_taylor     :   0.10000E-15                  max_taylor     :             4
  ----------------------------------- OT ---------------------------------------

  Step     Update method      Time    Convergence         Total energy    Change
  ------------------------------------------------------------------------------
     1 OT DIIS     0.80E-01   33.7     0.00381550     -6907.8356314496 -6.91E+03
     2 OT DIIS     0.80E-01   30.4     0.00250846     -6912.6261169716 -4.79E+00
     3 OT DIIS     0.80E-01   30.5     0.00264450     -6913.8456574760 -1.22E+00
     4 OT DIIS     0.80E-01   31.7     0.00102484     -6915.1264727845 -1.28E+00
     5 OT DIIS     0.80E-01   31.2     0.00107282     -6915.3864135128 -2.60E-01
     6 OT DIIS     0.80E-01   32.1     0.00105143     -6915.4642503268 -7.78E-02
     7 OT DIIS     0.80E-01   31.9     0.00041235     -6915.5290157374 -6.48E-02
     8 OT DIIS     0.80E-01   30.1     0.00032191     -6915.5458604569 -1.68E-02
     9 OT DIIS     0.80E-01   29.7     0.00020329     -6915.5555969203 -9.74E-03
    10 OT DIIS     0.80E-01   29.3     0.00013783     -6915.5589942491 -3.40E-03
    11 OT DIIS     0.80E-01   23.3     0.00010905     -6915.5617472370 -2.75E-03
    12 OT DIIS     0.80E-01   31.3     0.00008368     -6915.5628967445 -1.15E-03
    13 OT DIIS     0.80E-01   30.6     0.00006264     -6915.5638189940 -9.22E-04
    14 OT DIIS     0.80E-01   39.3     0.00004556     -6915.5645302573 -7.11E-04
    15 OT DIIS     0.80E-01   29.5     0.00004404     -6915.5649787539 -4.48E-04
    16 OT DIIS     0.80E-01   31.5     0.00004194     -6915.5652933420 -3.15E-04
    17 OT DIIS     0.80E-01   33.9     0.00002779     -6915.5655827039 -2.89E-04
    18 OT DIIS     0.80E-01   32.5     0.00002198     -6915.5657846307 -2.02E-04
    19 OT DIIS     0.80E-01   31.7     0.00001988     -6915.5659349550 -1.50E-04
    20 OT DIIS     0.80E-01   30.2     0.00001704     -6915.5660469710 -1.12E-04
    21 OT DIIS     0.80E-01   30.5     0.00001547     -6915.5661354817 -8.85E-05
    22 OT DIIS     0.80E-01   26.7     0.00001262     -6915.5662154714 -8.00E-05
    23 OT DIIS     0.80E-01   31.2     0.00001093     -6915.5662769706 -6.15E-05
    24 OT DIIS     0.80E-01   30.3     0.00001042     -6915.5663284563 -5.15E-05
    25 OT DIIS     0.80E-01   24.2     0.00000908     -6915.5663701438 -4.17E-05
    26 OT DIIS     0.80E-01   30.8     0.00000804     -6915.5664057819 -3.56E-05
    27 OT DIIS     0.80E-01   27.0     0.00000714     -6915.5664390653 -3.33E-05
    28 OT DIIS     0.80E-01   31.4     0.00000628     -6915.5664636705 -2.46E-05
    29 OT DIIS     0.80E-01   31.7     0.00000617     -6915.5664839040 -2.02E-05
    30 OT DIIS     0.80E-01   31.8     0.00000540     -6915.5664988446 -1.49E-05
    31 OT DIIS     0.80E-01   30.2     0.00000472     -6915.5665127298 -1.39E-05
    32 OT DIIS     0.80E-01   30.7     0.00000449     -6915.5665251529 -1.24E-05
    33 OT DIIS     0.80E-01   28.3     0.00000426     -6915.5665352513 -1.01E-05
    34 OT DIIS     0.80E-01   29.4     0.00000387     -6915.5665435382 -8.29E-06
    35 OT DIIS     0.80E-01   30.7     0.00000346     -6915.5665523188 -8.78E-06
    36 OT DIIS     0.80E-01   30.5     0.00000324     -6915.5665591634 -6.84E-06
    37 OT DIIS     0.80E-01   28.6     0.00000325     -6915.5665658628 -6.70E-06
    38 OT DIIS     0.80E-01   27.4     0.00000294     -6915.5665712010 -5.34E-06
    39 OT DIIS     0.80E-01   30.8     0.00000268     -6915.5665766791 -5.48E-06
    40 OT DIIS     0.80E-01   27.9     0.00000267     -6915.5665815868 -4.91E-06
    41 OT DIIS     0.80E-01   26.1     0.00000251     -6915.5665855657 -3.98E-06
    42 OT DIIS     0.80E-01   27.0     0.00000233     -6915.5665893290 -3.76E-06
    43 OT DIIS     0.80E-01   26.1     0.00000222     -6915.5665934844 -4.16E-06
    44 OT DIIS     0.80E-01   31.2     0.00000216     -6915.5665968073 -3.32E-06
    45 OT DIIS     0.80E-01   30.1     0.00000209     -6915.5666004402 -3.63E-06
    46 OT DIIS     0.80E-01   32.6     0.00000195     -6915.5666037364 -3.30E-06
    47 OT DIIS     0.80E-01   27.8     0.00000187     -6915.5666070852 -3.35E-06
    48 OT DIIS     0.80E-01   27.7     0.00000186     -6915.5666102914 -3.21E-06
    49 OT DIIS     0.80E-01   30.8     0.00000174     -6915.5666133371 -3.05E-06
    50 OT DIIS     0.80E-01   31.7     0.00000167     -6915.5666163373 -3.00E-06
    51 OT DIIS     0.80E-01   30.6     0.00000161     -6915.5666192216 -2.88E-06
    52 OT DIIS     0.80E-01   30.3     0.00000151     -6915.5666215213 -2.30E-06
    53 OT DIIS     0.80E-01   30.8     0.00000145     -6915.5666239304 -2.41E-06
    54 OT DIIS     0.80E-01   26.8     0.00000138     -6915.5666257720 -1.84E-06
    55 OT DIIS     0.80E-01   22.3     0.00000130     -6915.5666273626 -1.59E-06
    56 OT DIIS     0.80E-01   31.8     0.00000125     -6915.5666288149 -1.45E-06
    57 OT DIIS     0.80E-01   30.6     0.00000118     -6915.5666299451 -1.13E-06
    58 OT DIIS     0.80E-01   30.4     0.00000112     -6915.5666308879 -9.43E-07
    59 OT DIIS     0.80E-01   25.1     0.00000106     -6915.5666317159 -8.28E-07
    60 OT DIIS     0.80E-01   31.8     0.00000100     -6915.5666323464 -6.30E-07
    61 OT DIIS     0.80E-01   30.7     0.00000098     -6915.5666329657 -6.19E-07

  *** SCF run converged in    61 steps ***


  Electronic density on regular grids:      -2431.9999999625        0.0000000375
  Core density on regular grids:             2431.9999999988       -0.0000000012
  Total charge density on r-space grids:        0.0000000364
  Total charge density g-space grids:           0.0000000364

  Overlap energy of the core charge distribution:               0.00127328422097
  Self energy of the core charge distribution:             -16017.19408509233290
  Core Hamiltonian energy:                                   4289.03744765012289
  Hartree energy:                                            6140.55834777901509
  Exchange-correlation energy:                              -1325.93031980862520
  Dispersion energy:                                           -2.03929677814676

  Total energy:                                             -6915.56663296574516

  outer SCF iter =    1 RMS gradient =   0.98E-06 energy =      -6915.5666329657
  outer SCF loop converged in   1 iterations or   61 steps


 ENERGY| Total FORCE_EVAL ( QS ) energy [hartree]          -6915.566633442931561

 OPT| **************************************************************************
 OPT| Step number                                                              2
 OPT| Optimization method                                                  LBFGS
 OPT| Total energy [hartree]                                    -6915.5666334429
 OPT| Effective energy change [hartree]                            -1.0982228830
 OPT| Decrease in energy                                                     YES
 OPT| Used time [s]                                                     1892.002
 OPT|
 OPT| Maximum step size                                             0.0983530423
 OPT| Convergence limit for maximum step size                       0.0030000000
 OPT| Maximum step size is converged                                          NO
 OPT|
 OPT| RMS step size                                                 0.0096779301
 OPT| Convergence limit for RMS step size                           0.0015000000
 OPT| RMS step size is converged                                              NO
 OPT|
 OPT| Maximum gradient                                              0.5339035338
 OPT| Convergence limit for maximum gradient                        0.0010000000
 OPT| Maximum gradient is converged                                           NO
 OPT|
 OPT| RMS gradient                                                  0.0771631145
 OPT| Convergence limit for RMS gradient                            0.0005000000
 OPT| RMS gradient is converged                                               NO
 OPT| **************************************************************************
 OPT| Estimated peak process memory after this step [MiB]                  11326

 --------------------------
 OPTIMIZATION STEP:      3
 --------------------------

 Number of electrons:                                                       2432
 Number of occupied orbitals:                                               1216
[...]


 ENERGY| Total FORCE_EVAL ( QS ) energy [hartree]          -6923.095791257454948

 OPT| **************************************************************************
 OPT| Step number                                                            149
 OPT| Optimization method                                                  LBFGS
 OPT| Total energy [hartree]                                    -6923.0957912575
 OPT| Effective energy change [hartree]                            -0.0002949898
 OPT| Decrease in energy                                                     YES
 OPT| Used time [s]                                                      320.611
 OPT|
 OPT| Maximum step size                                             0.0481813232
 OPT| Convergence limit for maximum step size                       0.0030000000
 OPT| Maximum step size is converged                                          NO
 OPT|
 OPT| RMS step size                                                 0.0037315637
 OPT| Convergence limit for RMS step size                           0.0015000000
 OPT| RMS step size is converged                                              NO
 OPT|
 OPT| Maximum gradient                                              0.0080130043
 OPT| Convergence limit for maximum gradient                        0.0010000000
 OPT| Maximum gradient is converged                                           NO
 OPT|
 OPT| RMS gradient                                                  0.0009174241
 OPT| Convergence limit for RMS gradient                            0.0005000000
 OPT| RMS gradient is converged                                               NO
 OPT| **************************************************************************
 OPT| Estimated peak process memory after this step [MiB]                  11326

 --------------------------
 OPTIMIZATION STEP:    150
 --------------------------

 Number of electrons:                                                       2432
 Number of occupied orbitals:                                               1216
 Number of molecular orbitals:                                              1216

 Number of orbital functions:                                               4983
 Number of independent orbital functions:                                   4983

 Extrapolation method: ASPC


 SCF WAVEFUNCTION OPTIMIZATION

  ----------------------------------- OT ---------------------------------------
  Minimizer      : DIIS                : direct inversion
                                         in the iterative subspace
                                         using   7 DIIS vectors
                                         safer DIIS on
  Preconditioner : FULL_SINGLE_INVERSE : inversion of 
                                         H + eS - 2*(Sc)(c^T*H*c+const)(Sc)^T
  Precond_solver : DEFAULT
  stepsize       :    0.08000000                  energy_gap     :    0.08000000
  eps_taylor     :   0.10000E-15                  max_taylor     :             4
  ----------------------------------- OT ---------------------------------------

  Step     Update method      Time    Convergence         Total energy    Change
  ------------------------------------------------------------------------------
     1 OT DIIS     0.80E-01   29.4     0.00002472     -6923.0957490186 -6.92E+03
     2 OT DIIS     0.80E-01   32.9     0.00001530     -6923.0959471268 -1.98E-04
     3 OT DIIS     0.80E-01   27.5     0.00001193     -6923.0960105151 -6.34E-05
     4 OT DIIS     0.80E-01   29.9     0.00000740     -6923.0960533003 -4.28E-05
     5 OT DIIS     0.80E-01   29.9     0.00000331     -6923.0960638280 -1.05E-05
     6 OT DIIS     0.80E-01   31.5     0.00000168     -6923.0960663206 -2.49E-06
     7 OT DIIS     0.80E-01   30.2     0.00000102     -6923.0960671395 -8.19E-07
     8 OT DIIS     0.80E-01   30.0     0.00000055     -6923.0960673375 -1.98E-07

  *** SCF run converged in     8 steps ***


  Electronic density on regular grids:      -2431.9999997449        0.0000002551
  Core density on regular grids:             2431.9999999988       -0.0000000012
  Total charge density on r-space grids:        0.0000002539
  Total charge density g-space grids:           0.0000002539

  Overlap energy of the core charge distribution:               0.00000775511734
  Self energy of the core charge distribution:             -16017.19408509233290
  Core Hamiltonian energy:                                   4265.51284938840308
  Hartree energy:                                            6151.40543955875819
  Exchange-correlation energy:                              -1320.81598579218507
  Dispersion energy:                                           -2.00429315529209

  Total energy:                                             -6923.09606733752935

  outer SCF iter =    1 RMS gradient =   0.55E-06 energy =      -6923.0960673375
  outer SCF loop converged in   1 iterations or    8 steps


 ENERGY| Total FORCE_EVAL ( QS ) energy [hartree]          -6923.096067411338481

 OPT| **************************************************************************
 OPT| Step number                                                            150
 OPT| Optimization method                                                  LBFGS
 OPT| Total energy [hartree]                                    -6923.0960674113
 OPT| Effective energy change [hartree]                            -0.0002761539
 OPT| Decrease in energy                                                     YES
 OPT| Used time [s]                                                      309.796
 OPT|
 OPT| Maximum step size                                             0.0196563452
 OPT| Convergence limit for maximum step size                       0.0030000000
 OPT| Maximum step size is converged                                          NO
 OPT|
 OPT| RMS step size                                                 0.0016938891
 OPT| Convergence limit for RMS step size                           0.0015000000
 OPT| RMS step size is converged                                              NO
 OPT|
 OPT| Maximum gradient                                              0.0080693740
 OPT| Convergence limit for maximum gradient                        0.0010000000
 OPT| Maximum gradient is converged                                           NO
 OPT|
 OPT| RMS gradient                                                  0.0007395048
 OPT| Convergence limit for RMS gradient                            0.0005000000
 OPT| RMS gradient is converged                                               NO
 OPT| **************************************************************************
 OPT| Estimated peak process memory after this step [MiB]                  11326

 --------------------------
 OPTIMIZATION STEP:    151
 --------------------------

 Number of electrons:                                                       2432
 Number of occupied orbitals:                                               1216
 Number of molecular orbitals:                                              1216

 Number of orbital functions:                                               4983
 Number of independent orbital functions:                                   4983

 Extrapolation method: ASPC


 SCF WAVEFUNCTION OPTIMIZATION

  ----------------------------------- OT ---------------------------------------
  Minimizer      : DIIS                : direct inversion
                                         in the iterative subspace
                                         using   7 DIIS vectors
                                         safer DIIS on
  Preconditioner : FULL_SINGLE_INVERSE : inversion of 
                                         H + eS - 2*(Sc)(c^T*H*c+const)(Sc)^T
  Precond_solver : DEFAULT
  stepsize       :    0.08000000                  energy_gap     :    0.08000000
  eps_taylor     :   0.10000E-15                  max_taylor     :             4
  ----------------------------------- OT ---------------------------------------

  Step     Update method      Time    Convergence         Total energy    Change
  ------------------------------------------------------------------------------
     1 OT DIIS     0.80E-01   27.8     0.00005680     -6923.0948909437 -6.92E+03
     2 OT DIIS     0.80E-01   32.6     0.00003634     -6923.0960901479 -1.20E-03
     3 OT DIIS     0.80E-01   24.3     0.00002888     -6923.0966499062 -5.60E-04
     4 OT DIIS     0.80E-01   25.3     0.00001066     -6923.0969155375 -2.66E-04
     5 OT DIIS     0.80E-01   28.6     0.00000766     -6923.0969443065 -2.88E-05
     6 OT DIIS     0.80E-01   32.0     0.00000336     -6923.0969542518 -9.95E-06
     7 OT DIIS     0.80E-01   31.7     0.00000174     -6923.0969571733 -2.92E-06
     8 OT DIIS     0.80E-01   31.4     0.00000112     -6923.0969579933 -8.20E-07
     9 OT DIIS     0.80E-01   32.0     0.00000060     -6923.0969582490 -2.56E-07

  *** SCF run converged in     9 steps ***


  Electronic density on regular grids:      -2431.9999997439        0.0000002561
  Core density on regular grids:             2431.9999999988       -0.0000000012
  Total charge density on r-space grids:        0.0000002549
  Total charge density g-space grids:           0.0000002549

  Overlap energy of the core charge distribution:               0.00000775082388
  Self energy of the core charge distribution:             -16017.19408509233290
  Core Hamiltonian energy:                                   4265.54587382940099
  Hartree energy:                                            6151.37975677739723
  Exchange-correlation energy:                              -1320.82422101767565
  Dispersion energy:                                           -2.00429049658430

  Total energy:                                             -6923.09695824897062

  outer SCF iter =    1 RMS gradient =   0.60E-06 energy =      -6923.0969582490
  outer SCF loop converged in   1 iterations or    9 steps


 ENERGY| Total FORCE_EVAL ( QS ) energy [hartree]          -6923.096958357145013

 OPT| **************************************************************************
 OPT| Step number                                                            151
 OPT| Optimization method                                                  LBFGS
 OPT| Total energy [hartree]                                    -6923.0969583571
 OPT| Effective energy change [hartree]                            -0.0008909458
 OPT| Decrease in energy                                                     YES
 OPT| Used time [s]                                                      327.708
 OPT|
 OPT| Maximum step size                                             0.0428477213
 OPT| Convergence limit for maximum step size                       0.0030000000
 OPT| Maximum step size is converged                                          NO
 OPT|
 OPT| RMS step size                                                 0.0032512457
 OPT| Convergence limit for RMS step size                           0.0015000000
 OPT| RMS step size is converged                                              NO
 OPT|
 OPT| Maximum gradient                                              0.0083545463
 OPT| Convergence limit for maximum gradient                        0.0010000000
 OPT| Maximum gradient is converged                                           NO
 OPT|
 OPT| RMS gradient                                                  0.0006281215
 OPT| Convergence limit for RMS gradient                            0.0005000000
 OPT| RMS gradient is converged                                               NO
 OPT| **************************************************************************
 OPT| Estimated peak process memory after this step [MiB]                  11326

 --------------------------
 OPTIMIZATION STEP:    152
 --------------------------

 Number of electrons:                                                       2432
 Number of occupied orbitals:                                               1216
 Number of molecular orbitals:                                              1216

 Number of orbital functions:                                               4983
 Number of independent orbital functions:                                   4983

 Extrapolation method: ASPC


 SCF WAVEFUNCTION OPTIMIZATION

  ----------------------------------- OT ---------------------------------------
  Minimizer      : DIIS                : direct inversion
                                         in the iterative subspace
                                         using   7 DIIS vectors
                                         safer DIIS on
  Preconditioner : FULL_SINGLE_INVERSE : inversion of 
                                         H + eS - 2*(Sc)(c^T*H*c+const)(Sc)^T
  Precond_solver : DEFAULT
  stepsize       :    0.08000000                  energy_gap     :    0.08000000
  eps_taylor     :   0.10000E-15                  max_taylor     :             4
  ----------------------------------- OT ---------------------------------------

  Step     Update method      Time    Convergence         Total energy    Change
  ------------------------------------------------------------------------------
     1 OT DIIS     0.80E-01   32.3     0.00003735     -6923.0978958542 -6.92E+03
     2 OT DIIS     0.80E-01   33.4     0.00002256     -6923.0983721491 -4.76E-04
     3 OT DIIS     0.80E-01   29.5     0.00001608     -6923.0985449364 -1.73E-04
     4 OT DIIS     0.80E-01   30.1     0.00000687     -6923.0986456386 -1.01E-04
     5 OT DIIS     0.80E-01   26.8     0.00000488     -6923.0986573456 -1.17E-05
     6 OT DIIS     0.80E-01   30.1     0.00000232     -6923.0986612129 -3.87E-06
     7 OT DIIS     0.80E-01   29.8     0.00000110     -6923.0986625221 -1.31E-06
     8 OT DIIS     0.80E-01   31.1     0.00000070     -6923.0986628118 -2.90E-07

  *** SCF run converged in     8 steps ***


  Electronic density on regular grids:      -2431.9999997454        0.0000002546
  Core density on regular grids:             2431.9999999988       -0.0000000012
  Total charge density on r-space grids:        0.0000002535
  Total charge density g-space grids:           0.0000002535

  Overlap energy of the core charge distribution:               0.00000774956331
  Self energy of the core charge distribution:             -16017.19408509233290
  Core Hamiltonian energy:                                   4265.59498563595298
  Hartree energy:                                            6151.33956923380356
  Exchange-correlation energy:                              -1320.83493059831630
  Dispersion energy:                                           -2.00420974050424

  Total energy:                                             -6923.09866281183440

  outer SCF iter =    1 RMS gradient =   0.70E-06 energy =      -6923.0986628118
  outer SCF loop converged in   1 iterations or    8 steps


 ENERGY| Total FORCE_EVAL ( QS ) energy [hartree]          -6923.098662911642350

 OPT| **************************************************************************
 OPT| Step number                                                            152
 OPT| Optimization method                                                  LBFGS
 OPT| Total energy [hartree]                                    -6923.0986629116
 OPT| Effective energy change [hartree]                            -0.0017045545
 OPT| Decrease in energy                                                     YES
 OPT| Used time [s]                                                      311.888
 OPT|
 OPT| Maximum step size                                             0.1612622389
 OPT| Convergence limit for maximum step size                       0.0030000000
 OPT| Maximum step size is converged                                          NO
 OPT|
 OPT| RMS step size                                                 0.0121946585
 OPT| Convergence limit for RMS step size                           0.0015000000
 OPT| RMS step size is converged                                              NO
 OPT|
 OPT| Maximum gradient                                              0.0087742675
 OPT| Convergence limit for maximum gradient                        0.0010000000
 OPT| Maximum gradient is converged                                           NO
 OPT|
 OPT| RMS gradient                                                  0.0009613128
 OPT| Convergence limit for RMS gradient                            0.0005000000
 OPT| RMS gradient is converged                                               NO
 OPT| **************************************************************************
 OPT| Estimated peak process memory after this step [MiB]                  11326

 --------------------------
 OPTIMIZATION STEP:    153
 --------------------------

 Number of electrons:                                                       2432
 Number of occupied orbitals:                                               1216
 Number of molecular orbitals:                                              1216

 Number of orbital functions:                                               4983
 Number of independent orbital functions:                                   4983

 Extrapolation method: ASPC


 SCF WAVEFUNCTION OPTIMIZATION

  ----------------------------------- OT ---------------------------------------
  Minimizer      : DIIS                : direct inversion
                                         in the iterative subspace
                                         using   7 DIIS vectors
                                         safer DIIS on
  Preconditioner : FULL_SINGLE_INVERSE : inversion of 
                                         H + eS - 2*(Sc)(c^T*H*c+const)(Sc)^T
  Precond_solver : DEFAULT
  stepsize       :    0.08000000                  energy_gap     :    0.08000000
  eps_taylor     :   0.10000E-15                  max_taylor     :             4
  ----------------------------------- OT ---------------------------------------

  Step     Update method      Time    Convergence         Total energy    Change
  ------------------------------------------------------------------------------
     1 OT DIIS     0.80E-01   28.1     0.00018331     -6923.0646827885 -6.92E+03
     2 OT DIIS     0.80E-01   24.6     0.00011447     -6923.0762995312 -1.16E-02
     3 OT DIIS     0.80E-01   30.3     0.00008816     -6923.0804907670 -4.19E-03
     4 OT DIIS     0.80E-01   30.7     0.00003149     -6923.0832200334 -2.73E-03
     5 OT DIIS     0.80E-01   29.9     0.00001794     -6923.0835392653 -3.19E-04
     6 OT DIIS     0.80E-01   27.7     0.00000912     -6923.0836282274 -8.90E-05
     7 OT DIIS     0.80E-01   24.8     0.00000552     -6923.0836505207 -2.23E-05
     8 OT DIIS     0.80E-01   28.8     0.00000320     -6923.0836559280 -5.41E-06
     9 OT DIIS     0.80E-01   21.5     0.00000156     -6923.0836578280 -1.90E-06
    10 OT DIIS     0.80E-01   26.4     0.00000118     -6923.0836584701 -6.42E-07
    11 OT DIIS     0.80E-01   30.0     0.00000063     -6923.0836587537 -2.84E-07

  *** SCF run converged in    11 steps ***


  Electronic density on regular grids:      -2431.9999997608        0.0000002392
  Core density on regular grids:             2431.9999999988       -0.0000000012
  Total charge density on r-space grids:        0.0000002381
  Total charge density g-space grids:           0.0000002381

  Overlap energy of the core charge distribution:               0.00000785509353
  Self energy of the core charge distribution:             -16017.19408509233290
  Core Hamiltonian energy:                                   4265.46440191471356
  Hartree energy:                                            6151.43227343379658
  Exchange-correlation energy:                              -1320.78254647697895
  Dispersion energy:                                           -2.00371038799372

  Total energy:                                             -6923.08365875370419
