 DBCSR| CPU Multiplication driver                                           BLAS (U)
 DBCSR| Multrec recursion limit                                              512 (U)
 DBCSR| Multiplication stack size                                           1000 (D)
 DBCSR| Maximum elements for images                                    UNLIMITED (U)
 DBCSR| Multiplicative factor virtual images                                   1 (U)
 DBCSR| Use multiplication densification                                       T (D)
 DBCSR| Multiplication size stacks                                             3 (U)
 DBCSR| Use memory pool for CPU allocation                                     F (U)
 DBCSR| Number of 3D layers                                               SINGLE (U)
 DBCSR| Use MPI memory allocation                                              F (U)
 DBCSR| Use RMA algorithm                                                      F (U)
 DBCSR| Use Communication thread                                               T (U)
 DBCSR| Communication thread load                                             87 (D)
 DBCSR| MPI: My process id                                                     0
 DBCSR| MPI: Number of processes                                             324
 DBCSR| OMP: Current number of threads                                         1
 DBCSR| OMP: Max number of threads                                             1
 DBCSR| Split modifier for TAS multiplication algorithm                  1.0E+00 (U)


  **** **** ******  **  PROGRAM STARTED AT               2025-11-07 10:47:47.446
 ***** ** ***  *** **   PROGRAM STARTED ON                                cn5173
 **    ****   ******    PROGRAM STARTED BY                                tiansc
 ***** **    ** ** **   PROGRAM PROCESS ID                                259386
  **** **  *******  **  PROGRAM STARTED IN /fs2/home/tiansc/Ov_Ni-FeOx_AIMD/test
                                           /202

 CP2K| version string:                 CP2K version 2025.2 (Development Version)
 CP2K| source code revision number:                                  git:b25f040
 CP2K| cp2kflags: omp libint fftw3 libxc libgrpp elpa parallel scalapack cosma d
 CP2K|            eepmd plumed2 spglib libdftd4 sirius libvori libbqb libtorch l
 CP2K|            libvdwxc hdf5 trexio libsmeagol greenx
 CP2K| is freely available from                            https://www.cp2k.org/
 CP2K| Program compiled at                          Wed Oct 29 13:40:35 CST 2025
 CP2K| Program compiled on                                             th-ex-ln2
 CP2K| Program compiled for                                                local
 CP2K| Data directory path              /fs2/software/cp2k/pkg/cp2k-gcc12.2/data
 CP2K| Input file name                                           HAP_202_opt.inp

 GLOBAL| Force Environment number                                              1
 GLOBAL| Basis set file name                                        BASIS_MOLOPT
 GLOBAL| Potential file name                                      GTH_POTENTIALS
 GLOBAL| MM Potential file name                                     MM_POTENTIAL
 GLOBAL| Coordinate file name                                  HAP_202_clean.xyz
 GLOBAL| Method name                                                        CP2K
 GLOBAL| Project name                                                HAP_202_opt
 GLOBAL| Run type                                                        GEO_OPT
 GLOBAL| FFT library                                                       FFTW3
 GLOBAL| Diagonalization library                                            ELPA
 GLOBAL| Cholesky decomposition library                                ScaLAPACK
 GLOBAL| DGEMM library                                                      BLAS
 GLOBAL| Minimum number of eigenvectors for ELPA usage                        16
 GLOBAL| Orthonormality check for eigenvectors                          DISABLED
 GLOBAL| Matrix multiplication library                                     COSMA
 GLOBAL| All-to-all communication in single precision                          F
 GLOBAL| FFTs using library dependent lengths                                  F
 GLOBAL| Grid backend                                                       AUTO
 GLOBAL| Global print level                                                  LOW
 GLOBAL| MPI I/O enabled                                                       T
 GLOBAL| Total number of message passing processes                           324
 GLOBAL| Number of threads for this process                                    1
 GLOBAL| This output is from process                                           0
 GLOBAL| OpenMP stack size per thread (OMP_STACKSIZE)                    default
 GLOBAL| CPU model name                 Intel(R) Xeon(R) Gold 6348 CPU @ 2.60GHz
 GLOBAL| CPUID                                                              1003

 MEMORY| system memory details [Kb]
 MEMORY|                        rank 0           min           max       average
 MEMORY| MemTotal            263245640     263245640     263245640     263245640
 MEMORY| MemFree             250134952     242277248     250478036     246148419
 MEMORY| Buffers                     0             0             0             0
 MEMORY| Cached                2775820       2775816       8554364       5943184
 MEMORY| Slab                   642100        622228       2081620       1165876
 MEMORY| SReclaimable           154776        134164        631712        331852
 MEMORY| MemLikelyFree       253065548     251463324     253475328     252423455


 GENERATE|  Preliminary Number of Bonds generated:                             0
 GENERATE|  Achieved consistency in connectivity generation.

 *******************************************************************************
 *******************************************************************************
 **                                                                           **
 **     #####                         ##              ##                      **
 **    ##   ##            ##          ##              ##                      **
 **   ##     ##                       ##            ######                    **
 **   ##     ##  ##   ##  ##   #####  ##  ##   ####   ##    #####    #####    **
 **   ##     ##  ##   ##  ##  ##      ## ##   ##      ##   ##   ##  ##   ##   **
 **   ##  ## ##  ##   ##  ##  ##      ####     ###    ##   ######   ######    **
 **    ##  ###   ##   ##  ##  ##      ## ##      ##   ##   ##       ##        **
 **     #######   #####   ##   #####  ##  ##  ####    ##    #####   ##        **
 **           ##                                                    ##        **
 **                                                                           **
 **                                                ... make the atoms dance   **
 **                                                                           **
 **            Copyright (C) by CP2K developers group (2000-2025)             **
 **                      J. Chem. Phys. 152, 194103 (2020)                    **
 **                                                                           **
 *******************************************************************************


 TOTAL NUMBERS AND MAXIMUM NUMBERS

  Total number of            - Atomic kinds:                                   5
                             - Atoms:                                        387
                             - Shell sets:                                   387
                             - Shells:                                      2015
                             - Primitive Cartesian functions:               2031
                             - Cartesian basis functions:                   5338
                             - Spherical basis functions:                   4983

  Maximum angular momentum of- Orbital basis functions:                        2
                             - Local part of the GTH pseudopotential:          2
                             - Non-local part of the GTH pseudopotential:      3


 SCF PARAMETERS         Density guess:                                    ATOMIC
                        --------------------------------------------------------
                        max_scf:                                             100
                        max_scf_history:                                       0
                        max_diis:                                              4
                        --------------------------------------------------------
                        eps_scf:                                        1.00E-06
                        eps_scf_history:                                0.00E+00
                        eps_diis:                                       0.00E+00
                        eps_eigval:                                     1.00E-05
                        --------------------------------------------------------
                        level_shift [a.u.]:                             0.000000
                        --------------------------------------------------------
                        Outer loop SCF in use 
                        No variables optimised in outer loop
                        eps_scf                                         1.00E-06
                        max_scf                                               50
                        No outer loop optimization
                        step_size                                       5.00E-01

 *******************************************************************************
 ***                     STARTING GEOMETRY OPTIMIZATION                      ***
 ***                                 L-BFGS                                  ***
 *******************************************************************************

 --------------------------
 OPTIMIZATION STEP:      1
 --------------------------

 Extrapolation method: initial_guess

 Number of electrons:                                                       2432
 Number of occupied orbitals:                                               1216
 Number of molecular orbitals:                                              1216

 Number of orbital functions:                                               4983
 Number of independent orbital functions:                                   4983


 SCF WAVEFUNCTION OPTIMIZATION

  ----------------------------------- OT ---------------------------------------
  Minimizer      : DIIS                : direct inversion
                                         in the iterative subspace
                                         using   7 DIIS vectors
                                         safer DIIS on
  Preconditioner : FULL_SINGLE_INVERSE : inversion of 
                                         H + eS - 2*(Sc)(c^T*H*c+const)(Sc)^T
  Precond_solver : DEFAULT
  stepsize       :    0.08000000                  energy_gap     :    0.08000000
  eps_taylor     :   0.10000E-15                  max_taylor     :             4
  ----------------------------------- OT ---------------------------------------

  Step     Update method      Time    Convergence         Total energy    Change
  ------------------------------------------------------------------------------

 *** WARNING in fm/cp_fm_elpa.F:521 :: Setting real_kernel for ELPA failed ***

     1 OT DIIS     0.80E-01    9.1     0.01660366     -6700.7100794942 -6.70E+03

 *** WARNING in fm/cp_fm_elpa.F:521 :: Setting real_kernel for ELPA failed ***

     2 OT DIIS     0.80E-01    8.3     0.00990048     -6776.7827957293 -7.61E+01

 *** WARNING in fm/cp_fm_elpa.F:521 :: Setting real_kernel for ELPA failed ***

     3 OT DIIS     0.80E-01    8.7     0.00703403     -6808.8722147776 -3.21E+01

 *** WARNING in fm/cp_fm_elpa.F:521 :: Setting real_kernel for ELPA failed ***

     4 OT DIIS     0.80E-01    7.9     0.00563615     -6836.8736998832 -2.80E+01

 *** WARNING in fm/cp_fm_elpa.F:521 :: Setting real_kernel for ELPA failed ***

     5 OT DIIS     0.80E-01    8.8     0.00397152     -6851.8857997681 -1.50E+01

 *** WARNING in fm/cp_fm_elpa.F:521 :: Setting real_kernel for ELPA failed ***

     6 OT DIIS     0.80E-01    8.4     0.00305651     -6864.3370683576 -1.25E+01

 *** WARNING in fm/cp_fm_elpa.F:521 :: Setting real_kernel for ELPA failed ***

     7 OT DIIS     0.80E-01    8.3     0.00239677     -6873.4112109791 -9.07E+00

 *** WARNING in fm/cp_fm_elpa.F:521 :: Setting real_kernel for ELPA failed ***

     8 OT DIIS     0.80E-01    8.4     0.00184873     -6880.4127708311 -7.00E+00

 *** WARNING in fm/cp_fm_elpa.F:521 :: Setting real_kernel for ELPA failed ***

     9 OT DIIS     0.80E-01    9.2     0.00151413     -6883.9289775703 -3.52E+00

 *** WARNING in fm/cp_fm_elpa.F:521 :: Setting real_kernel for ELPA failed ***

    10 OT DIIS     0.80E-01    8.4     0.00116717     -6886.9405680819 -3.01E+00

 *** WARNING in fm/cp_fm_elpa.F:521 :: Setting real_kernel for ELPA failed ***

    11 OT DIIS     0.80E-01    8.4     0.00092871     -6888.8989258594 -1.96E+00

 *** WARNING in fm/cp_fm_elpa.F:521 :: Setting real_kernel for ELPA failed ***

    12 OT DIIS     0.80E-01    8.7     0.00075440     -6890.1539913035 -1.26E+00

 *** WARNING in fm/cp_fm_elpa.F:521 :: Setting real_kernel for ELPA failed ***

    13 OT DIIS     0.80E-01    8.4     0.00062776     -6891.0040475552 -8.50E-01

 *** WARNING in fm/cp_fm_elpa.F:521 :: Setting real_kernel for ELPA failed ***

    14 OT DIIS     0.80E-01    8.7     0.00052048     -6891.6892566775 -6.85E-01

 *** WARNING in fm/cp_fm_elpa.F:521 :: Setting real_kernel for ELPA failed ***

    15 OT DIIS     0.80E-01    7.7     0.00044407     -6892.1203532055 -4.31E-01

 *** WARNING in fm/cp_fm_elpa.F:521 :: Setting real_kernel for ELPA failed ***

    16 OT DIIS     0.80E-01    8.6     0.00038649     -6892.4354161617 -3.15E-01

 *** WARNING in fm/cp_fm_elpa.F:521 :: Setting real_kernel for ELPA failed ***

    17 OT DIIS     0.80E-01    8.6     0.00033584     -6892.7203844859 -2.85E-01

 *** WARNING in fm/cp_fm_elpa.F:521 :: Setting real_kernel for ELPA failed ***

    18 OT DIIS     0.80E-01    8.6     0.00029209     -6892.9321091387 -2.12E-01

 *** WARNING in fm/cp_fm_elpa.F:521 :: Setting real_kernel for ELPA failed ***

    19 OT DIIS     0.80E-01    9.3     0.00026148     -6893.0725568786 -1.40E-01

 *** WARNING in fm/cp_fm_elpa.F:521 :: Setting real_kernel for ELPA failed ***

    20 OT DIIS     0.80E-01    8.4     0.00022576     -6893.2366767386 -1.64E-01

 *** WARNING in fm/cp_fm_elpa.F:521 :: Setting real_kernel for ELPA failed ***


 *** WARNING in fm/cp_fm_elpa.F:521 :: Setting real_kernel for ELPA failed ***

    21 OT DIIS     0.80E-01    8.9     0.00019786     -6893.3643605249 -1.28E-01

 *** WARNING in fm/cp_fm_elpa.F:521 :: Setting real_kernel for ELPA failed ***

    22 OT DIIS     0.80E-01    8.6     0.00018187     -6893.4283935086 -6.40E-02

 *** WARNING in fm/cp_fm_elpa.F:521 :: Setting real_kernel for ELPA failed ***

    23 OT DIIS     0.80E-01    7.4     0.00016289     -6893.5106025958 -8.22E-02

 *** WARNING in fm/cp_fm_elpa.F:521 :: Setting real_kernel for ELPA failed ***

    24 OT DIIS     0.80E-01    8.0     0.00014457     -6893.5864962894 -7.59E-02

 *** WARNING in fm/cp_fm_elpa.F:521 :: Setting real_kernel for ELPA failed ***

    25 OT DIIS     0.80E-01    7.7     0.00013342     -6893.6289064926 -4.24E-02

 *** WARNING in fm/cp_fm_elpa.F:521 :: Setting real_kernel for ELPA failed ***

    26 OT DIIS     0.80E-01    9.1     0.00012298     -6893.6684273300 -3.95E-02

 *** WARNING in fm/cp_fm_elpa.F:521 :: Setting real_kernel for ELPA failed ***

    27 OT DIIS     0.80E-01    9.0     0.00010959     -6893.7195062031 -5.11E-02

 *** WARNING in fm/cp_fm_elpa.F:521 :: Setting real_kernel for ELPA failed ***

    28 OT DIIS     0.80E-01    8.5     0.00010020     -6893.7534745503 -3.40E-02

 *** WARNING in fm/cp_fm_elpa.F:521 :: Setting real_kernel for ELPA failed ***

    29 OT DIIS     0.80E-01    8.1     0.00009352     -6893.7748120520 -2.13E-02

 *** WARNING in fm/cp_fm_elpa.F:521 :: Setting real_kernel for ELPA failed ***

    30 OT DIIS     0.80E-01    8.9     0.00008365     -6893.8108078565 -3.60E-02

 *** WARNING in fm/cp_fm_elpa.F:521 :: Setting real_kernel for ELPA failed ***

    31 OT DIIS     0.80E-01    8.4     0.00007681     -6893.8346636217 -2.39E-02

 *** WARNING in fm/cp_fm_elpa.F:521 :: Setting real_kernel for ELPA failed ***

    32 OT DIIS     0.80E-01    8.9     0.00007239     -6893.8494002699 -1.47E-02

 *** WARNING in fm/cp_fm_elpa.F:521 :: Setting real_kernel for ELPA failed ***

    33 OT DIIS     0.80E-01    8.4     0.00006566     -6893.8713761563 -2.20E-02

 *** WARNING in fm/cp_fm_elpa.F:521 :: Setting real_kernel for ELPA failed ***

    34 OT DIIS     0.80E-01    7.9     0.00006115     -6893.8876884792 -1.63E-02

 *** WARNING in fm/cp_fm_elpa.F:521 :: Setting real_kernel for ELPA failed ***

    35 OT DIIS     0.80E-01    8.9     0.00005789     -6893.8988031055 -1.11E-02

 *** WARNING in fm/cp_fm_elpa.F:521 :: Setting real_kernel for ELPA failed ***

    36 OT DIIS     0.80E-01    9.0     0.00005483     -6893.9086897674 -9.89E-03

 *** WARNING in fm/cp_fm_elpa.F:521 :: Setting real_kernel for ELPA failed ***

    37 OT DIIS     0.80E-01    9.2     0.00005107     -6893.9227214255 -1.40E-02

 *** WARNING in fm/cp_fm_elpa.F:521 :: Setting real_kernel for ELPA failed ***

    38 OT DIIS     0.80E-01    8.5     0.00004784     -6893.9350835417 -1.24E-02

 *** WARNING in fm/cp_fm_elpa.F:521 :: Setting real_kernel for ELPA failed ***

    39 OT DIIS     0.80E-01    8.1     0.00004581     -6893.9408321926 -5.75E-03

 *** WARNING in fm/cp_fm_elpa.F:521 :: Setting real_kernel for ELPA failed ***

    40 OT DIIS     0.80E-01    8.8     0.00004240     -6893.9516637945 -1.08E-02

 *** WARNING in fm/cp_fm_elpa.F:521 :: Setting real_kernel for ELPA failed ***


 *** WARNING in fm/cp_fm_elpa.F:521 :: Setting real_kernel for ELPA failed ***

    41 OT DIIS     0.80E-01    8.5     0.00003952     -6893.9611424786 -9.48E-03

 *** WARNING in fm/cp_fm_elpa.F:521 :: Setting real_kernel for ELPA failed ***

    42 OT DIIS     0.80E-01    8.1     0.00003778     -6893.9663605208 -5.22E-03

 *** WARNING in fm/cp_fm_elpa.F:521 :: Setting real_kernel for ELPA failed ***

    43 OT DIIS     0.80E-01    8.7     0.00003581     -6893.9718437201 -5.48E-03

 *** WARNING in fm/cp_fm_elpa.F:521 :: Setting real_kernel for ELPA failed ***

    44 OT DIIS     0.80E-01    8.3     0.00003364     -6893.9793433768 -7.50E-03

 *** WARNING in fm/cp_fm_elpa.F:521 :: Setting real_kernel for ELPA failed ***

    45 OT DIIS     0.80E-01    8.4     0.00003212     -6893.9849531133 -5.61E-03

 *** WARNING in fm/cp_fm_elpa.F:521 :: Setting real_kernel for ELPA failed ***

    46 OT DIIS     0.80E-01    9.4     0.00003062     -6893.9879531237 -3.00E-03

 *** WARNING in fm/cp_fm_elpa.F:521 :: Setting real_kernel for ELPA failed ***

    47 OT DIIS     0.80E-01    9.4     0.00002817     -6893.9947372901 -6.78E-03

 *** WARNING in fm/cp_fm_elpa.F:521 :: Setting real_kernel for ELPA failed ***

    48 OT DIIS     0.80E-01    8.5     0.00002667     -6893.9989320991 -4.19E-03

 *** WARNING in fm/cp_fm_elpa.F:521 :: Setting real_kernel for ELPA failed ***

    49 OT DIIS     0.80E-01    9.5     0.00002548     -6894.0023812105 -3.45E-03

 *** WARNING in fm/cp_fm_elpa.F:521 :: Setting real_kernel for ELPA failed ***

    50 OT DIIS     0.80E-01    9.4     0.00002427     -6894.0058250318 -3.44E-03

 *** WARNING in fm/cp_fm_elpa.F:521 :: Setting real_kernel for ELPA failed ***

    51 OT DIIS     0.80E-01    8.4     0.00002320     -6894.0086928016 -2.87E-03

 *** WARNING in fm/cp_fm_elpa.F:521 :: Setting real_kernel for ELPA failed ***

    52 OT DIIS     0.80E-01    8.2     0.00002220     -6894.0115836257 -2.89E-03

 *** WARNING in fm/cp_fm_elpa.F:521 :: Setting real_kernel for ELPA failed ***

    53 OT DIIS     0.80E-01    8.9     0.00002127     -6894.0143913095 -2.81E-03

 *** WARNING in fm/cp_fm_elpa.F:521 :: Setting real_kernel for ELPA failed ***

    54 OT DIIS     0.80E-01    8.9     0.00002065     -6894.0161990764 -1.81E-03

 *** WARNING in fm/cp_fm_elpa.F:521 :: Setting real_kernel for ELPA failed ***

    55 OT DIIS     0.80E-01    9.4     0.00001989     -6894.0188464165 -2.65E-03

 *** WARNING in fm/cp_fm_elpa.F:521 :: Setting real_kernel for ELPA failed ***

    56 OT DIIS     0.80E-01    9.3     0.00001923     -6894.0212260495 -2.38E-03

 *** WARNING in fm/cp_fm_elpa.F:521 :: Setting real_kernel for ELPA failed ***

    57 OT DIIS     0.80E-01    8.8     0.00001876     -6894.0228843609 -1.66E-03

 *** WARNING in fm/cp_fm_elpa.F:521 :: Setting real_kernel for ELPA failed ***

    58 OT DIIS     0.80E-01    8.9     0.00001810     -6894.0249996189 -2.12E-03

 *** WARNING in fm/cp_fm_elpa.F:521 :: Setting real_kernel for ELPA failed ***

    59 OT DIIS     0.80E-01    8.0     0.00001740     -6894.0279083840 -2.91E-03

 *** WARNING in fm/cp_fm_elpa.F:521 :: Setting real_kernel for ELPA failed ***

    60 OT DIIS     0.80E-01    9.3     0.00001694     -6894.0296827247 -1.77E-03

 *** WARNING in fm/cp_fm_elpa.F:521 :: Setting real_kernel for ELPA failed ***


 *** WARNING in fm/cp_fm_elpa.F:521 :: Setting real_kernel for ELPA failed ***

    61 OT DIIS     0.80E-01    9.2     0.00001638     -6894.0304492316 -7.67E-04

 *** WARNING in fm/cp_fm_elpa.F:521 :: Setting real_kernel for ELPA failed ***

    62 OT DIIS     0.80E-01    8.4     0.00001570     -6894.0332349506 -2.79E-03

 *** WARNING in fm/cp_fm_elpa.F:521 :: Setting real_kernel for ELPA failed ***

    63 OT DIIS     0.80E-01    7.6     0.00001480     -6894.0354431096 -2.21E-03

 *** WARNING in fm/cp_fm_elpa.F:521 :: Setting real_kernel for ELPA failed ***

    64 OT DIIS     0.80E-01    7.8     0.00001415     -6894.0368067027 -1.36E-03

 *** WARNING in fm/cp_fm_elpa.F:521 :: Setting real_kernel for ELPA failed ***

    65 OT DIIS     0.80E-01    9.1     0.00001360     -6894.0382765925 -1.47E-03

 *** WARNING in fm/cp_fm_elpa.F:521 :: Setting real_kernel for ELPA failed ***

    66 OT DIIS     0.80E-01    7.7     0.00001327     -6894.0395577637 -1.28E-03

 *** WARNING in fm/cp_fm_elpa.F:521 :: Setting real_kernel for ELPA failed ***

    67 OT DIIS     0.80E-01    8.4     0.00001290     -6894.0403560894 -7.98E-04

 *** WARNING in fm/cp_fm_elpa.F:521 :: Setting real_kernel for ELPA failed ***

    68 OT DIIS     0.80E-01    8.6     0.00001268     -6894.0410166387 -6.61E-04

 *** WARNING in fm/cp_fm_elpa.F:521 :: Setting real_kernel for ELPA failed ***

    69 OT DIIS     0.80E-01    9.6     0.00001222     -6894.0417678062 -7.51E-04

 *** WARNING in fm/cp_fm_elpa.F:521 :: Setting real_kernel for ELPA failed ***

    70 OT DIIS     0.80E-01    8.1     0.00001169     -6894.0433364038 -1.57E-03

 *** WARNING in fm/cp_fm_elpa.F:521 :: Setting real_kernel for ELPA failed ***

    71 OT DIIS     0.80E-01    8.8     0.00001147     -6894.0437839558 -4.48E-04

 *** WARNING in fm/cp_fm_elpa.F:521 :: Setting real_kernel for ELPA failed ***

    72 OT DIIS     0.80E-01    8.9     0.00001125     -6894.0443983925 -6.14E-04

 *** WARNING in fm/cp_fm_elpa.F:521 :: Setting real_kernel for ELPA failed ***

    73 OT DIIS     0.80E-01    9.0     0.00001098     -6894.0450109245 -6.13E-04

 *** WARNING in fm/cp_fm_elpa.F:521 :: Setting real_kernel for ELPA failed ***

    74 OT DIIS     0.80E-01    9.2     0.00001070     -6894.0459005729 -8.90E-04

 *** WARNING in fm/cp_fm_elpa.F:521 :: Setting real_kernel for ELPA failed ***

    75 OT DIIS     0.80E-01    8.3     0.00001048     -6894.0463113427 -4.11E-04

 *** WARNING in fm/cp_fm_elpa.F:521 :: Setting real_kernel for ELPA failed ***

    76 OT DIIS     0.80E-01    8.4     0.00001025     -6894.0473311185 -1.02E-03

 *** WARNING in fm/cp_fm_elpa.F:521 :: Setting real_kernel for ELPA failed ***

    77 OT DIIS     0.80E-01    8.3     0.00001003     -6894.0479015208 -5.70E-04

 *** WARNING in fm/cp_fm_elpa.F:521 :: Setting real_kernel for ELPA failed ***

    78 OT DIIS     0.80E-01    8.1     0.00000987     -6894.0484003153 -4.99E-04

 *** WARNING in fm/cp_fm_elpa.F:521 :: Setting real_kernel for ELPA failed ***

    79 OT DIIS     0.80E-01    8.2     0.00000967     -6894.0491064272 -7.06E-04

 *** WARNING in fm/cp_fm_elpa.F:521 :: Setting real_kernel for ELPA failed ***

    80 OT DIIS     0.80E-01    9.2     0.00000941     -6894.0501600133 -1.05E-03

 *** WARNING in fm/cp_fm_elpa.F:521 :: Setting real_kernel for ELPA failed ***


 *** WARNING in fm/cp_fm_elpa.F:521 :: Setting real_kernel for ELPA failed ***

    81 OT DIIS     0.80E-01    7.8     0.00000922     -6894.0508293691 -6.69E-04

 *** WARNING in fm/cp_fm_elpa.F:521 :: Setting real_kernel for ELPA failed ***

    82 OT DIIS     0.80E-01    8.8     0.00000901     -6894.0516704146 -8.41E-04

 *** WARNING in fm/cp_fm_elpa.F:521 :: Setting real_kernel for ELPA failed ***

    83 OT DIIS     0.80E-01    8.4     0.00000885     -6894.0523978300 -7.27E-04

 *** WARNING in fm/cp_fm_elpa.F:521 :: Setting real_kernel for ELPA failed ***

    84 OT DIIS     0.80E-01    7.6     0.00000878     -6894.0530428717 -6.45E-04

 *** WARNING in fm/cp_fm_elpa.F:521 :: Setting real_kernel for ELPA failed ***

    85 OT DIIS     0.80E-01    8.9     0.00000861     -6894.0531897853 -1.47E-04

 *** WARNING in fm/cp_fm_elpa.F:521 :: Setting real_kernel for ELPA failed ***

    86 OT DIIS     0.80E-01    8.1     0.00000857     -6894.0542399492 -1.05E-03

 *** WARNING in fm/cp_fm_elpa.F:521 :: Setting real_kernel for ELPA failed ***

    87 OT DIIS     0.80E-01    9.3     0.00000825     -6894.0551744093 -9.34E-04

 *** WARNING in fm/cp_fm_elpa.F:521 :: Setting real_kernel for ELPA failed ***

    88 OT DIIS     0.80E-01    8.9     0.00000799     -6894.0557425588 -5.68E-04

 *** WARNING in fm/cp_fm_elpa.F:521 :: Setting real_kernel for ELPA failed ***

    89 OT DIIS     0.80E-01    8.5     0.00000779     -6894.0563640999 -6.22E-04

 *** WARNING in fm/cp_fm_elpa.F:521 :: Setting real_kernel for ELPA failed ***

    90 OT DIIS     0.80E-01    8.8     0.00000764     -6894.0569677390 -6.04E-04

 *** WARNING in fm/cp_fm_elpa.F:521 :: Setting real_kernel for ELPA failed ***

    91 OT DIIS     0.80E-01    8.4     0.00000746     -6894.0573543989 -3.87E-04

 *** WARNING in fm/cp_fm_elpa.F:521 :: Setting real_kernel for ELPA failed ***

    92 OT DIIS     0.80E-01    9.1     0.00000736     -6894.0575989140 -2.45E-04

 *** WARNING in fm/cp_fm_elpa.F:521 :: Setting real_kernel for ELPA failed ***

    93 OT DIIS     0.80E-01    8.4     0.00000718     -6894.0579919857 -3.93E-04

 *** WARNING in fm/cp_fm_elpa.F:521 :: Setting real_kernel for ELPA failed ***

    94 OT DIIS     0.80E-01    8.3     0.00000694     -6894.0583146846 -3.23E-04

 *** WARNING in fm/cp_fm_elpa.F:521 :: Setting real_kernel for ELPA failed ***

    95 OT DIIS     0.80E-01    8.6     0.00000682     -6894.0585850748 -2.70E-04

 *** WARNING in fm/cp_fm_elpa.F:521 :: Setting real_kernel for ELPA failed ***

    96 OT DIIS     0.80E-01    8.0     0.00000668     -6894.0589077262 -3.23E-04

 *** WARNING in fm/cp_fm_elpa.F:521 :: Setting real_kernel for ELPA failed ***

    97 OT DIIS     0.80E-01    8.9     0.00000654     -6894.0592543243 -3.47E-04

 *** WARNING in fm/cp_fm_elpa.F:521 :: Setting real_kernel for ELPA failed ***

    98 OT DIIS     0.80E-01    8.2     0.00000643     -6894.0595635430 -3.09E-04

 *** WARNING in fm/cp_fm_elpa.F:521 :: Setting real_kernel for ELPA failed ***

    99 OT DIIS     0.80E-01    8.0     0.00000622     -6894.0600023946 -4.39E-04

 *** WARNING in fm/cp_fm_elpa.F:521 :: Setting real_kernel for ELPA failed ***

   100 OT DIIS     0.80E-01    9.4     0.00000612     -6894.0602709003 -2.69E-04

  Leaving inner SCF loop after reaching   100 steps.


  Electronic density on regular grids:      -2431.9999999959        0.0000000041
  Core density on regular grids:             2431.9999999988       -0.0000000012
  Total charge density on r-space grids:        0.0000000030
  Total charge density g-space grids:           0.0000000030

  Overlap energy of the core charge distribution:               0.02767263596186
  Self energy of the core charge distribution:             -16017.19408509233290
  Core Hamiltonian energy:                                   4331.44988283808925
  Hartree energy:                                            6123.85416342070857
  Exchange-correlation energy:                              -1330.20183344575298
  Dispersion energy:                                           -1.99607125698893

  Total energy:                                             -6894.06027090031512

 *** WARNING in fm/cp_fm_elpa.F:521 :: Setting real_kernel for ELPA failed ***


  outer SCF iter =    1 RMS gradient =   0.61E-05 energy =      -6894.0602709003

  ----------------------------------- OT ---------------------------------------
  Minimizer      : DIIS                : direct inversion
                                         in the iterative subspace
                                         using   7 DIIS vectors
                                         safer DIIS on
  Preconditioner : FULL_SINGLE_INVERSE : inversion of 
                                         H + eS - 2*(Sc)(c^T*H*c+const)(Sc)^T
  Precond_solver : DEFAULT
  stepsize       :    0.08000000                  energy_gap     :    0.08000000
  eps_taylor     :   0.10000E-15                  max_taylor     :             4
  ----------------------------------- OT ---------------------------------------

  Step     Update method      Time    Convergence         Total energy    Change
  ------------------------------------------------------------------------------
     1 OT DIIS     0.80E-01  104.6     0.00009203     -6894.0605212748 -2.50E-04
     2 OT DIIS     0.80E-01    6.6     0.00010062     -6894.0629168662 -2.40E-03
     3 OT DIIS     0.80E-01    6.2     0.00011772     -6894.0635009002 -5.84E-04
     4 OT DIIS     0.80E-01    6.3     0.00009317     -6894.0644218352 -9.21E-04
     5 OT DIIS     0.80E-01    7.0     0.00006475     -6894.0654578754 -1.04E-03
     6 OT DIIS     0.80E-01    6.6     0.00005810     -6894.0660116306 -5.54E-04
     7 OT DIIS     0.80E-01    6.5     0.00004769     -6894.0666243979 -6.13E-04
     8 OT DIIS     0.80E-01    7.1     0.00004119     -6894.0671618090 -5.37E-04
     9 OT DIIS     0.80E-01    6.8     0.00003485     -6894.0676184963 -4.57E-04
    10 OT DIIS     0.80E-01    5.6     0.00003742     -6894.0680452678 -4.27E-04
    11 OT DIIS     0.80E-01    6.5     0.00003080     -6894.0685756588 -5.30E-04
    12 OT DIIS     0.80E-01    6.6     0.00003337     -6894.0690029467 -4.27E-04
    13 OT DIIS     0.80E-01    7.8     0.00003295     -6894.0693672743 -3.64E-04
    14 OT DIIS     0.80E-01    7.2     0.00003164     -6894.0697535496 -3.86E-04
    15 OT DIIS     0.80E-01    8.0     0.00003093     -6894.0700077987 -2.54E-04
    16 OT DIIS     0.80E-01    7.7     0.00002967     -6894.0702491854 -2.41E-04

 *** WARNING in fm/cp_fm_elpa.F:521 :: Setting real_kernel for ELPA failed ***

    17 OT DIIS     0.80E-01    8.0     0.00002771     -6894.0704523781 -2.03E-04

 *** WARNING in fm/cp_fm_elpa.F:521 :: Setting real_kernel for ELPA failed ***

    18 OT DIIS     0.80E-01    8.6     0.00002749     -6894.0708045001 -3.52E-04

 *** WARNING in fm/cp_fm_elpa.F:521 :: Setting real_kernel for ELPA failed ***

    19 OT DIIS     0.80E-01    8.4     0.00002633     -6894.0707991388  5.36E-06

 *** WARNING in fm/cp_fm_elpa.F:521 :: Setting real_kernel for ELPA failed ***

    20 OT DIIS     0.80E-01    8.6     0.00002702     -6894.0709585142 -1.59E-04

 *** WARNING in fm/cp_fm_elpa.F:521 :: Setting real_kernel for ELPA failed ***


 *** WARNING in fm/cp_fm_elpa.F:521 :: Setting real_kernel for ELPA failed ***

    21 OT DIIS     0.80E-01    8.3     0.00002584     -6894.0711085641 -1.50E-04

 *** WARNING in fm/cp_fm_elpa.F:521 :: Setting real_kernel for ELPA failed ***

    22 OT DIIS     0.80E-01    8.4     0.00002465     -6894.0711517050 -4.31E-05

 *** WARNING in fm/cp_fm_elpa.F:521 :: Setting real_kernel for ELPA failed ***

    23 OT DIIS     0.80E-01    8.8     0.00002305     -6894.0712178619 -6.62E-05

 *** WARNING in fm/cp_fm_elpa.F:521 :: Setting real_kernel for ELPA failed ***

    24 OT DIIS     0.80E-01    8.5     0.00002135     -6894.0712836086 -6.57E-05

 *** WARNING in fm/cp_fm_elpa.F:521 :: Setting real_kernel for ELPA failed ***

    25 OT DIIS     0.80E-01    8.5     0.00001975     -6894.0713629333 -7.93E-05

 *** WARNING in fm/cp_fm_elpa.F:521 :: Setting real_kernel for ELPA failed ***

    26 OT DIIS     0.80E-01    7.9     0.00001947     -6894.0714639594 -1.01E-04

 *** WARNING in fm/cp_fm_elpa.F:521 :: Setting real_kernel for ELPA failed ***

    27 OT DIIS     0.80E-01    8.7     0.00001942     -6894.0715073141 -4.34E-05

 *** WARNING in fm/cp_fm_elpa.F:521 :: Setting real_kernel for ELPA failed ***

    28 OT DIIS     0.80E-01    8.7     0.00001960     -6894.0716111360 -1.04E-04

 *** WARNING in fm/cp_fm_elpa.F:521 :: Setting real_kernel for ELPA failed ***

    29 OT DIIS     0.80E-01    8.8     0.00001995     -6894.0717242204 -1.13E-04

 *** WARNING in fm/cp_fm_elpa.F:521 :: Setting real_kernel for ELPA failed ***

    30 OT DIIS     0.80E-01    8.7     0.00002072     -6894.0717830263 -5.88E-05

 *** WARNING in fm/cp_fm_elpa.F:521 :: Setting real_kernel for ELPA failed ***

    31 OT DIIS     0.80E-01    8.5     0.00002070     -6894.0718590378 -7.60E-05

 *** WARNING in fm/cp_fm_elpa.F:521 :: Setting real_kernel for ELPA failed ***

    32 OT DIIS     0.80E-01    8.4     0.00002020     -6894.0719290117 -7.00E-05

 *** WARNING in fm/cp_fm_elpa.F:521 :: Setting real_kernel for ELPA failed ***

    33 OT DIIS     0.80E-01    8.2     0.00001909     -6894.0720178562 -8.88E-05

 *** WARNING in fm/cp_fm_elpa.F:521 :: Setting real_kernel for ELPA failed ***

    34 OT DIIS     0.80E-01    9.0     0.00001865     -6894.0720683935 -5.05E-05

 *** WARNING in fm/cp_fm_elpa.F:521 :: Setting real_kernel for ELPA failed ***

    35 OT DIIS     0.80E-01    8.1     0.00001805     -6894.0721063098 -3.79E-05

 *** WARNING in fm/cp_fm_elpa.F:521 :: Setting real_kernel for ELPA failed ***

    36 OT DIIS     0.80E-01    8.7     0.00001758     -6894.0721644634 -5.82E-05

 *** WARNING in fm/cp_fm_elpa.F:521 :: Setting real_kernel for ELPA failed ***

    37 OT DIIS     0.80E-01    8.4     0.00001714     -6894.0722347238 -7.03E-05

 *** WARNING in fm/cp_fm_elpa.F:521 :: Setting real_kernel for ELPA failed ***

    38 OT DIIS     0.80E-01    8.3     0.00001729     -6894.0722772027 -4.25E-05

 *** WARNING in fm/cp_fm_elpa.F:521 :: Setting real_kernel for ELPA failed ***

    39 OT DIIS     0.80E-01    9.3     0.00001724     -6894.0723341000 -5.69E-05

 *** WARNING in fm/cp_fm_elpa.F:521 :: Setting real_kernel for ELPA failed ***

    40 OT DIIS     0.80E-01    8.4     0.00001715     -6894.0723968046 -6.27E-05

 *** WARNING in fm/cp_fm_elpa.F:521 :: Setting real_kernel for ELPA failed ***


 *** WARNING in fm/cp_fm_elpa.F:521 :: Setting real_kernel for ELPA failed ***

    41 OT DIIS     0.80E-01    9.4     0.00001702     -6894.0724856914 -8.89E-05

 *** WARNING in fm/cp_fm_elpa.F:521 :: Setting real_kernel for ELPA failed ***

    42 OT DIIS     0.80E-01    8.4     0.00001728     -6894.0725280740 -4.24E-05

 *** WARNING in fm/cp_fm_elpa.F:521 :: Setting real_kernel for ELPA failed ***

    43 OT DIIS     0.80E-01    8.5     0.00001737     -6894.0725984399 -7.04E-05

 *** WARNING in fm/cp_fm_elpa.F:521 :: Setting real_kernel for ELPA failed ***

    44 OT DIIS     0.80E-01    8.4     0.00001747     -6894.0726515152 -5.31E-05

 *** WARNING in fm/cp_fm_elpa.F:521 :: Setting real_kernel for ELPA failed ***

    45 OT DIIS     0.80E-01    8.4     0.00001702     -6894.0727071654 -5.57E-05

 *** WARNING in fm/cp_fm_elpa.F:521 :: Setting real_kernel for ELPA failed ***

    46 OT DIIS     0.80E-01    8.2     0.00001683     -6894.0727379885 -3.08E-05

 *** WARNING in fm/cp_fm_elpa.F:521 :: Setting real_kernel for ELPA failed ***

    47 OT DIIS     0.80E-01    8.6     0.00001629     -6894.0727748982 -3.69E-05

 *** WARNING in fm/cp_fm_elpa.F:521 :: Setting real_kernel for ELPA failed ***

    48 OT DIIS     0.80E-01    8.4     0.00001563     -6894.0728157061 -4.08E-05

 *** WARNING in fm/cp_fm_elpa.F:521 :: Setting real_kernel for ELPA failed ***

    49 OT DIIS     0.80E-01    8.6     0.00001519     -6894.0728783986 -6.27E-05

 *** WARNING in fm/cp_fm_elpa.F:521 :: Setting real_kernel for ELPA failed ***

    50 OT DIIS     0.80E-01    8.8     0.00001517     -6894.0729033229 -2.49E-05

 *** WARNING in fm/cp_fm_elpa.F:521 :: Setting real_kernel for ELPA failed ***

    51 OT DIIS     0.80E-01    8.1     0.00001521     -6894.0729689269 -6.56E-05

 *** WARNING in fm/cp_fm_elpa.F:521 :: Setting real_kernel for ELPA failed ***

    52 OT DIIS     0.80E-01    8.7     0.00001554     -6894.0730220312 -5.31E-05

 *** WARNING in fm/cp_fm_elpa.F:521 :: Setting real_kernel for ELPA failed ***

    53 OT DIIS     0.80E-01    8.5     0.00001574     -6894.0730739188 -5.19E-05

 *** WARNING in fm/cp_fm_elpa.F:521 :: Setting real_kernel for ELPA failed ***

    54 OT DIIS     0.80E-01    8.6     0.00001608     -6894.0731191270 -4.52E-05

 *** WARNING in fm/cp_fm_elpa.F:521 :: Setting real_kernel for ELPA failed ***

    55 OT DIIS     0.80E-01    8.0     0.00001609     -6894.0731598290 -4.07E-05

 *** WARNING in fm/cp_fm_elpa.F:521 :: Setting real_kernel for ELPA failed ***

    56 OT DIIS     0.80E-01    8.5     0.00001562     -6894.0731987213 -3.89E-05

 *** WARNING in fm/cp_fm_elpa.F:521 :: Setting real_kernel for ELPA failed ***

    57 OT DIIS     0.80E-01    8.3     0.00001495     -6894.0732537525 -5.50E-05

 *** WARNING in fm/cp_fm_elpa.F:521 :: Setting real_kernel for ELPA failed ***

    58 OT DIIS     0.80E-01    8.6     0.00001463     -6894.0732571473 -3.39E-06

 *** WARNING in fm/cp_fm_elpa.F:521 :: Setting real_kernel for ELPA failed ***

    59 OT DIIS     0.80E-01    8.4     0.00001417     -6894.0733110945 -5.39E-05

 *** WARNING in fm/cp_fm_elpa.F:521 :: Setting real_kernel for ELPA failed ***

    60 OT DIIS     0.80E-01    8.4     0.00001411     -6894.0733481515 -3.71E-05

 *** WARNING in fm/cp_fm_elpa.F:521 :: Setting real_kernel for ELPA failed ***


 *** WARNING in fm/cp_fm_elpa.F:521 :: Setting real_kernel for ELPA failed ***

    61 OT DIIS     0.80E-01    8.1     0.00001406     -6894.0733820042 -3.39E-05

 *** WARNING in fm/cp_fm_elpa.F:521 :: Setting real_kernel for ELPA failed ***

    62 OT DIIS     0.80E-01    8.3     0.00001415     -6894.0734229943 -4.10E-05

 *** WARNING in fm/cp_fm_elpa.F:521 :: Setting real_kernel for ELPA failed ***

    63 OT DIIS     0.80E-01    8.7     0.00001431     -6894.0734636770 -4.07E-05

 *** WARNING in fm/cp_fm_elpa.F:521 :: Setting real_kernel for ELPA failed ***

    64 OT DIIS     0.80E-01    8.9     0.00001439     -6894.0735069264 -4.32E-05

 *** WARNING in fm/cp_fm_elpa.F:521 :: Setting real_kernel for ELPA failed ***

    65 OT DIIS     0.80E-01    8.8     0.00001421     -6894.0735630098 -5.61E-05

 *** WARNING in fm/cp_fm_elpa.F:521 :: Setting real_kernel for ELPA failed ***

    66 OT DIIS     0.80E-01    8.3     0.00001437     -6894.0735700375 -7.03E-06

 *** WARNING in fm/cp_fm_elpa.F:521 :: Setting real_kernel for ELPA failed ***

    67 OT DIIS     0.80E-01    7.6     0.00001404     -6894.0736264517 -5.64E-05

 *** WARNING in fm/cp_fm_elpa.F:521 :: Setting real_kernel for ELPA failed ***

    68 OT DIIS     0.80E-01    8.7     0.00001395     -6894.0736582662 -3.18E-05

 *** WARNING in fm/cp_fm_elpa.F:521 :: Setting real_kernel for ELPA failed ***

    69 OT DIIS     0.80E-01    7.8     0.00001369     -6894.0736767229 -1.85E-05

 *** WARNING in fm/cp_fm_elpa.F:521 :: Setting real_kernel for ELPA failed ***

    70 OT DIIS     0.80E-01    8.0     0.00001335     -6894.0737084579 -3.17E-05

 *** WARNING in fm/cp_fm_elpa.F:521 :: Setting real_kernel for ELPA failed ***

    71 OT DIIS     0.80E-01    7.9     0.00001311     -6894.0737377742 -2.93E-05

 *** WARNING in fm/cp_fm_elpa.F:521 :: Setting real_kernel for ELPA failed ***

    72 OT DIIS     0.80E-01    8.2     0.00001298     -6894.0737699617 -3.22E-05

 *** WARNING in fm/cp_fm_elpa.F:521 :: Setting real_kernel for ELPA failed ***

    73 OT DIIS     0.80E-01    8.2     0.00001280     -6894.0738124848 -4.25E-05

 *** WARNING in fm/cp_fm_elpa.F:521 :: Setting real_kernel for ELPA failed ***

    74 OT DIIS     0.80E-01    8.0     0.00001303     -6894.0738286571 -1.62E-05

 *** WARNING in fm/cp_fm_elpa.F:521 :: Setting real_kernel for ELPA failed ***

    75 OT DIIS     0.80E-01    8.7     0.00001298     -6894.0738818356 -5.32E-05

 *** WARNING in fm/cp_fm_elpa.F:521 :: Setting real_kernel for ELPA failed ***

    76 OT DIIS     0.80E-01    8.5     0.00001327     -6894.0739219031 -4.01E-05

 *** WARNING in fm/cp_fm_elpa.F:521 :: Setting real_kernel for ELPA failed ***

    77 OT DIIS     0.80E-01    9.2     0.00001347     -6894.0739385362 -1.66E-05

 *** WARNING in fm/cp_fm_elpa.F:521 :: Setting real_kernel for ELPA failed ***

    78 OT DIIS     0.80E-01    8.0     0.00001326     -6894.0739705851 -3.20E-05

 *** WARNING in fm/cp_fm_elpa.F:521 :: Setting real_kernel for ELPA failed ***

    79 OT DIIS     0.80E-01    9.6     0.00001299     -6894.0739964132 -2.58E-05

 *** WARNING in fm/cp_fm_elpa.F:521 :: Setting real_kernel for ELPA failed ***

    80 OT DIIS     0.80E-01    8.4     0.00001269     -6894.0740218122 -2.54E-05

 *** WARNING in fm/cp_fm_elpa.F:521 :: Setting real_kernel for ELPA failed ***


 *** WARNING in fm/cp_fm_elpa.F:521 :: Setting real_kernel for ELPA failed ***

    81 OT DIIS     0.80E-01    8.5     0.00001219     -6894.0740519152 -3.01E-05

 *** WARNING in fm/cp_fm_elpa.F:521 :: Setting real_kernel for ELPA failed ***

    82 OT DIIS     0.80E-01    9.4     0.00001210     -6894.0740635035 -1.16E-05

 *** WARNING in fm/cp_fm_elpa.F:521 :: Setting real_kernel for ELPA failed ***

    83 OT DIIS     0.80E-01    8.1     0.00001182     -6894.0741013310 -3.78E-05

 *** WARNING in fm/cp_fm_elpa.F:521 :: Setting real_kernel for ELPA failed ***

    84 OT DIIS     0.80E-01    9.1     0.00001197     -6894.0741370344 -3.57E-05

 *** WARNING in fm/cp_fm_elpa.F:521 :: Setting real_kernel for ELPA failed ***

    85 OT DIIS     0.80E-01    8.4     0.00001225     -6894.0741552880 -1.83E-05

 *** WARNING in fm/cp_fm_elpa.F:521 :: Setting real_kernel for ELPA failed ***

    86 OT DIIS     0.80E-01    8.3     0.00001229     -6894.0741892723 -3.40E-05

 *** WARNING in fm/cp_fm_elpa.F:521 :: Setting real_kernel for ELPA failed ***

    87 OT DIIS     0.80E-01    8.4     0.00001239     -6894.0742204064 -3.11E-05

 *** WARNING in fm/cp_fm_elpa.F:521 :: Setting real_kernel for ELPA failed ***

    88 OT DIIS     0.80E-01    9.8     0.00001244     -6894.0742492274 -2.88E-05

 *** WARNING in fm/cp_fm_elpa.F:521 :: Setting real_kernel for ELPA failed ***

    89 OT DIIS     0.80E-01    8.6     0.00001208     -6894.0742733044 -2.41E-05

 *** WARNING in fm/cp_fm_elpa.F:521 :: Setting real_kernel for ELPA failed ***

    90 OT DIIS     0.80E-01    8.2     0.00001201     -6894.0742843346 -1.10E-05

 *** WARNING in fm/cp_fm_elpa.F:521 :: Setting real_kernel for ELPA failed ***

    91 OT DIIS     0.80E-01    8.3     0.00001150     -6894.0743128709 -2.85E-05

 *** WARNING in fm/cp_fm_elpa.F:521 :: Setting real_kernel for ELPA failed ***

    92 OT DIIS     0.80E-01    7.3     0.00001138     -6894.0743420724 -2.92E-05

 *** WARNING in fm/cp_fm_elpa.F:521 :: Setting real_kernel for ELPA failed ***

    93 OT DIIS     0.80E-01    8.3     0.00001137     -6894.0743540830 -1.20E-05

 *** WARNING in fm/cp_fm_elpa.F:521 :: Setting real_kernel for ELPA failed ***

    94 OT DIIS     0.80E-01    9.1     0.00001120     -6894.0743796229 -2.55E-05

 *** WARNING in fm/cp_fm_elpa.F:521 :: Setting real_kernel for ELPA failed ***

    95 OT DIIS     0.80E-01    8.6     0.00001121     -6894.0744071419 -2.75E-05

 *** WARNING in fm/cp_fm_elpa.F:521 :: Setting real_kernel for ELPA failed ***

    96 OT DIIS     0.80E-01    8.7     0.00001136     -6894.0744363508 -2.92E-05

 *** WARNING in fm/cp_fm_elpa.F:521 :: Setting real_kernel for ELPA failed ***

    97 OT DIIS     0.80E-01    7.9     0.00001133     -6894.0744592591 -2.29E-05

 *** WARNING in fm/cp_fm_elpa.F:521 :: Setting real_kernel for ELPA failed ***

    98 OT DIIS     0.80E-01    9.8     0.00001156     -6894.0744811768 -2.19E-05

 *** WARNING in fm/cp_fm_elpa.F:521 :: Setting real_kernel for ELPA failed ***

    99 OT DIIS     0.80E-01    8.4     0.00001132     -6894.0745067676 -2.56E-05

 *** WARNING in fm/cp_fm_elpa.F:521 :: Setting real_kernel for ELPA failed ***

   100 OT DIIS     0.80E-01    9.1     0.00001127     -6894.0745357440 -2.90E-05

  Leaving inner SCF loop after reaching   100 steps.


  Electronic density on regular grids:      -2431.9999999960        0.0000000040
  Core density on regular grids:             2431.9999999988       -0.0000000012
  Total charge density on r-space grids:        0.0000000029
  Total charge density g-space grids:           0.0000000029

  Overlap energy of the core charge distribution:               0.02767263596186
  Self energy of the core charge distribution:             -16017.19408509233290
  Core Hamiltonian energy:                                   4331.38425698929677
  Hartree energy:                                            6123.88770093320090
  Exchange-correlation energy:                              -1330.18400995312254
  Dispersion energy:                                           -1.99607125698893

  Total energy:                                             -6894.07453574398460

 *** WARNING in fm/cp_fm_elpa.F:521 :: Setting real_kernel for ELPA failed ***


  outer SCF iter =    2 RMS gradient =   0.11E-04 energy =      -6894.0745357440

  ----------------------------------- OT ---------------------------------------
  Minimizer      : DIIS                : direct inversion
                                         in the iterative subspace
                                         using   7 DIIS vectors
                                         safer DIIS on
  Preconditioner : FULL_SINGLE_INVERSE : inversion of 
                                         H + eS - 2*(Sc)(c^T*H*c+const)(Sc)^T
  Precond_solver : DEFAULT
  stepsize       :    0.08000000                  energy_gap     :    0.08000000
  eps_taylor     :   0.10000E-15                  max_taylor     :             4
  ----------------------------------- OT ---------------------------------------

  Step     Update method      Time    Convergence         Total energy    Change
  ------------------------------------------------------------------------------
     1 OT DIIS     0.80E-01   22.5     0.00001134     -6894.0745434494 -7.71E-06
     2 OT DIIS     0.80E-01    6.2     0.00003431     -6894.0745526261 -9.18E-06
     3 OT DIIS     0.80E-01    7.0     0.00001010     -6894.0745972352 -4.46E-05
     4 OT DIIS     0.80E-01    6.6     0.00000974     -6894.0746108818 -1.36E-05

 *** WARNING in fm/cp_fm_elpa.F:521 :: Setting real_kernel for ELPA failed ***

     5 OT DIIS     0.80E-01    8.3     0.00001372     -6894.0748408407 -2.30E-04

 *** WARNING in fm/cp_fm_elpa.F:521 :: Setting real_kernel for ELPA failed ***

     6 OT DIIS     0.80E-01    8.8     0.00002825     -6894.0756816458 -8.41E-04

 *** WARNING in fm/cp_fm_elpa.F:521 :: Setting real_kernel for ELPA failed ***

     7 OT DIIS     0.80E-01    7.9     0.00002598     -6894.0756872394 -5.59E-06

 *** WARNING in fm/cp_fm_elpa.F:521 :: Setting real_kernel for ELPA failed ***

     8 OT SD       0.80E-01    8.3     0.00002671     -6894.0756885940 -1.35E-06
     9 OT DIIS     0.80E-01    7.3     0.00006495     -6894.0755392704  1.49E-04
    10 OT DIIS     0.80E-01    6.8     0.00000962     -6894.0755664924 -2.72E-05

 *** WARNING in fm/cp_fm_elpa.F:521 :: Setting real_kernel for ELPA failed ***

    11 OT SD       0.80E-01    9.3     0.00001240     -6894.0757578418 -1.91E-04

 *** WARNING in fm/cp_fm_elpa.F:521 :: Setting real_kernel for ELPA failed ***

    12 OT DIIS     0.80E-01    8.4     0.00004990     -6894.0756951847  6.27E-05

 *** WARNING in fm/cp_fm_elpa.F:521 :: Setting real_kernel for ELPA failed ***

    13 OT DIIS     0.80E-01    9.1     0.00000839     -6894.0757836920 -8.85E-05

 *** WARNING in fm/cp_fm_elpa.F:521 :: Setting real_kernel for ELPA failed ***

    14 OT DIIS     0.80E-01    9.4     0.00000744     -6894.0758361540 -5.25E-05

 *** WARNING in fm/cp_fm_elpa.F:521 :: Setting real_kernel for ELPA failed ***

    15 OT DIIS     0.80E-01    8.2     0.00000771     -6894.0758390027 -2.85E-06

 *** WARNING in fm/cp_fm_elpa.F:521 :: Setting real_kernel for ELPA failed ***

    16 OT DIIS     0.80E-01    8.6     0.00000819     -6894.0759665726 -1.28E-04

 *** WARNING in fm/cp_fm_elpa.F:521 :: Setting real_kernel for ELPA failed ***

    17 OT SD       0.80E-01    9.5     0.00000933     -6894.0760406482 -7.41E-05

 *** WARNING in fm/cp_fm_elpa.F:521 :: Setting real_kernel for ELPA failed ***

    18 OT DIIS     0.80E-01    8.1     0.00003407     -6894.0760159717  2.47E-05

 *** WARNING in fm/cp_fm_elpa.F:521 :: Setting real_kernel for ELPA failed ***

    19 OT DIIS     0.80E-01    7.8     0.00000898     -6894.0761516326 -1.36E-04

 *** WARNING in fm/cp_fm_elpa.F:521 :: Setting real_kernel for ELPA failed ***

    20 OT DIIS     0.80E-01    8.2     0.00000929     -6894.0761811665 -2.95E-05

 *** WARNING in fm/cp_fm_elpa.F:521 :: Setting real_kernel for ELPA failed ***


 *** WARNING in fm/cp_fm_elpa.F:521 :: Setting real_kernel for ELPA failed ***

    21 OT DIIS     0.80E-01    8.4     0.00000719     -6894.0762778044 -9.66E-05

 *** WARNING in fm/cp_fm_elpa.F:521 :: Setting real_kernel for ELPA failed ***

    22 OT DIIS     0.80E-01    8.6     0.00000720     -6894.0763145347 -3.67E-05

 *** WARNING in fm/cp_fm_elpa.F:521 :: Setting real_kernel for ELPA failed ***

    23 OT SD       0.80E-01    8.2     0.00000774     -6894.0763481082 -3.36E-05

 *** WARNING in fm/cp_fm_elpa.F:521 :: Setting real_kernel for ELPA failed ***

    24 OT DIIS     0.80E-01    9.0     0.00003001     -6894.0763313904  1.67E-05

 *** WARNING in fm/cp_fm_elpa.F:521 :: Setting real_kernel for ELPA failed ***

    25 OT DIIS     0.80E-01    8.8     0.00000603     -6894.0763535370 -2.21E-05

 *** WARNING in fm/cp_fm_elpa.F:521 :: Setting real_kernel for ELPA failed ***

    26 OT DIIS     0.80E-01    8.1     0.00000583     -6894.0763831522 -2.96E-05

 *** WARNING in fm/cp_fm_elpa.F:521 :: Setting real_kernel for ELPA failed ***

    27 OT DIIS     0.80E-01    8.0     0.00000555     -6894.0764072149 -2.41E-05

 *** WARNING in fm/cp_fm_elpa.F:521 :: Setting real_kernel for ELPA failed ***

    28 OT DIIS     0.80E-01    8.3     0.00000689     -6894.0764068270  3.88E-07

 *** WARNING in fm/cp_fm_elpa.F:521 :: Setting real_kernel for ELPA failed ***

    29 OT DIIS     0.80E-01    9.1     0.00000602     -6894.0764882034 -8.14E-05

 *** WARNING in fm/cp_fm_elpa.F:521 :: Setting real_kernel for ELPA failed ***

    30 OT SD       0.80E-01    7.4     0.00000647     -6894.0765707687 -8.26E-05

 *** WARNING in fm/cp_fm_elpa.F:521 :: Setting real_kernel for ELPA failed ***

    31 OT DIIS     0.80E-01    7.3     0.00002026     -6894.0765674628  3.31E-06

 *** WARNING in fm/cp_fm_elpa.F:521 :: Setting real_kernel for ELPA failed ***

    32 OT DIIS     0.80E-01    7.9     0.00000638     -6894.0766513572 -8.39E-05

 *** WARNING in fm/cp_fm_elpa.F:521 :: Setting real_kernel for ELPA failed ***

    33 OT SD       0.80E-01    8.9     0.00000557     -6894.0767531416 -1.02E-04

 *** WARNING in fm/cp_fm_elpa.F:521 :: Setting real_kernel for ELPA failed ***

    34 OT SD       0.80E-01    8.5     0.00001224     -6894.0767588917 -5.75E-06

 *** WARNING in fm/cp_fm_elpa.F:521 :: Setting real_kernel for ELPA failed ***

    35 OT DIIS     0.80E-01    8.0     0.00006032     -6894.0766417812  1.17E-04

 *** WARNING in fm/cp_fm_elpa.F:521 :: Setting real_kernel for ELPA failed ***

    36 OT DIIS     0.80E-01    9.1     0.00000529     -6894.0768503445 -2.09E-04

 *** WARNING in fm/cp_fm_elpa.F:521 :: Setting real_kernel for ELPA failed ***

    37 OT SD       0.80E-01    8.4     0.00000537     -6894.0768863835 -3.60E-05

 *** WARNING in fm/cp_fm_elpa.F:521 :: Setting real_kernel for ELPA failed ***

    38 OT DIIS     0.80E-01    9.0     0.00001355     -6894.0768902895 -3.91E-06

 *** WARNING in fm/cp_fm_elpa.F:521 :: Setting real_kernel for ELPA failed ***

    39 OT DIIS     0.80E-01    7.4     0.00000489     -6894.0769904868 -1.00E-04

 *** WARNING in fm/cp_fm_elpa.F:521 :: Setting real_kernel for ELPA failed ***

    40 OT SD       0.80E-01    7.9     0.00000509     -6894.0770115531 -2.11E-05

 *** WARNING in fm/cp_fm_elpa.F:521 :: Setting real_kernel for ELPA failed ***


 *** WARNING in fm/cp_fm_elpa.F:521 :: Setting real_kernel for ELPA failed ***

    41 OT DIIS     0.80E-01    8.0     0.00001302     -6894.0770158236 -4.27E-06

 *** WARNING in fm/cp_fm_elpa.F:521 :: Setting real_kernel for ELPA failed ***

    42 OT DIIS     0.80E-01    7.9     0.00000495     -6894.0770906686 -7.48E-05

 *** WARNING in fm/cp_fm_elpa.F:521 :: Setting real_kernel for ELPA failed ***

    43 OT DIIS     0.80E-01    8.3     0.00000473     -6894.0771205088 -2.98E-05

 *** WARNING in fm/cp_fm_elpa.F:521 :: Setting real_kernel for ELPA failed ***

    44 OT DIIS     0.80E-01    8.7     0.00000464     -6894.0771379092 -1.74E-05

 *** WARNING in fm/cp_fm_elpa.F:521 :: Setting real_kernel for ELPA failed ***

    45 OT DIIS     0.80E-01    8.6     0.00000479     -6894.0771541880 -1.63E-05

 *** WARNING in fm/cp_fm_elpa.F:521 :: Setting real_kernel for ELPA failed ***

    46 OT DIIS     0.80E-01    8.3     0.00000535     -6894.0771913946 -3.72E-05

 *** WARNING in fm/cp_fm_elpa.F:521 :: Setting real_kernel for ELPA failed ***

    47 OT SD       0.80E-01    8.8     0.00000467     -6894.0772644511 -7.31E-05

 *** WARNING in fm/cp_fm_elpa.F:521 :: Setting real_kernel for ELPA failed ***

    48 OT SD       0.80E-01    8.2     0.00000732     -6894.0772718526 -7.40E-06

 *** WARNING in fm/cp_fm_elpa.F:521 :: Setting real_kernel for ELPA failed ***

    49 OT DIIS     0.80E-01    8.3     0.00002913     -6894.0772494525  2.24E-05

 *** WARNING in fm/cp_fm_elpa.F:521 :: Setting real_kernel for ELPA failed ***

    50 OT SD       0.80E-01    9.3     0.00000463     -6894.0773174176 -6.80E-05

 *** WARNING in fm/cp_fm_elpa.F:521 :: Setting real_kernel for ELPA failed ***

    51 OT DIIS     0.80E-01    9.4     0.00001097     -6894.0773219877 -4.57E-06

 *** WARNING in fm/cp_fm_elpa.F:521 :: Setting real_kernel for ELPA failed ***

    52 OT DIIS     0.80E-01    8.8     0.00000507     -6894.0774458641 -1.24E-04

 *** WARNING in fm/cp_fm_elpa.F:521 :: Setting real_kernel for ELPA failed ***

    53 OT DIIS     0.80E-01    8.0     0.00000452     -6894.0774828741 -3.70E-05

 *** WARNING in fm/cp_fm_elpa.F:521 :: Setting real_kernel for ELPA failed ***

    54 OT SD       0.80E-01    8.5     0.00000504     -6894.0775570128 -7.41E-05

 *** WARNING in fm/cp_fm_elpa.F:521 :: Setting real_kernel for ELPA failed ***

    55 OT SD       0.80E-01    8.4     0.00001578     -6894.0775559661  1.05E-06

 *** WARNING in fm/cp_fm_elpa.F:521 :: Setting real_kernel for ELPA failed ***

    56 OT DIIS     0.80E-01    9.3     0.00008530     -6894.0773066049  2.49E-04

 *** WARNING in fm/cp_fm_elpa.F:521 :: Setting real_kernel for ELPA failed ***

    57 OT DIIS     0.80E-01    7.9     0.00000444     -6894.0776281079 -3.22E-04

 *** WARNING in fm/cp_fm_elpa.F:521 :: Setting real_kernel for ELPA failed ***

    58 OT DIIS     0.80E-01    8.1     0.00000428     -6894.0776666692 -3.86E-05

 *** WARNING in fm/cp_fm_elpa.F:521 :: Setting real_kernel for ELPA failed ***

    59 OT SD       0.80E-01    7.7     0.00000438     -6894.0777066155 -3.99E-05

 *** WARNING in fm/cp_fm_elpa.F:521 :: Setting real_kernel for ELPA failed ***

    60 OT DIIS     0.80E-01    9.2     0.00001236     -6894.0777083662 -1.75E-06

 *** WARNING in fm/cp_fm_elpa.F:521 :: Setting real_kernel for ELPA failed ***


 *** WARNING in fm/cp_fm_elpa.F:521 :: Setting real_kernel for ELPA failed ***

    61 OT SD       0.80E-01    8.0     0.00000433     -6894.0778137709 -1.05E-04

 *** WARNING in fm/cp_fm_elpa.F:521 :: Setting real_kernel for ELPA failed ***

    62 OT SD       0.80E-01    9.4     0.00000806     -6894.0778179836 -4.21E-06

 *** WARNING in fm/cp_fm_elpa.F:521 :: Setting real_kernel for ELPA failed ***

    63 OT DIIS     0.80E-01    8.7     0.00003310     -6894.0777823183  3.57E-05

 *** WARNING in fm/cp_fm_elpa.F:521 :: Setting real_kernel for ELPA failed ***

    64 OT DIIS     0.80E-01    8.4     0.00000384     -6894.0778436069 -6.13E-05

 *** WARNING in fm/cp_fm_elpa.F:521 :: Setting real_kernel for ELPA failed ***

    65 OT DIIS     0.80E-01    8.8     0.00000401     -6894.0778736060 -3.00E-05

 *** WARNING in fm/cp_fm_elpa.F:521 :: Setting real_kernel for ELPA failed ***

    66 OT DIIS     0.80E-01    7.9     0.00000384     -6894.0778899975 -1.64E-05

 *** WARNING in fm/cp_fm_elpa.F:521 :: Setting real_kernel for ELPA failed ***

    67 OT DIIS     0.80E-01    8.1     0.00000359     -6894.0778965570 -6.56E-06

 *** WARNING in fm/cp_fm_elpa.F:521 :: Setting real_kernel for ELPA failed ***

    68 OT SD       0.80E-01    8.0     0.00000393     -6894.0779706473 -7.41E-05

 *** WARNING in fm/cp_fm_elpa.F:521 :: Setting real_kernel for ELPA failed ***

    69 OT DIIS     0.80E-01    8.8     0.00000906     -6894.0779735089 -2.86E-06

 *** WARNING in fm/cp_fm_elpa.F:521 :: Setting real_kernel for ELPA failed ***

    70 OT DIIS     0.80E-01    8.3     0.00000356     -6894.0779835486 -1.00E-05

 *** WARNING in fm/cp_fm_elpa.F:521 :: Setting real_kernel for ELPA failed ***

    71 OT DIIS     0.80E-01    8.3     0.00000439     -6894.0780591903 -7.56E-05

 *** WARNING in fm/cp_fm_elpa.F:521 :: Setting real_kernel for ELPA failed ***

    72 OT SD       0.80E-01    7.8     0.00000435     -6894.0780857474 -2.66E-05

 *** WARNING in fm/cp_fm_elpa.F:521 :: Setting real_kernel for ELPA failed ***

    73 OT SD       0.80E-01    8.3     0.00001231     -6894.0780858812 -1.34E-07

 *** WARNING in fm/cp_fm_elpa.F:521 :: Setting real_kernel for ELPA failed ***

    74 OT DIIS     0.80E-01    8.6     0.00006514     -6894.0779425246  1.43E-04

 *** WARNING in fm/cp_fm_elpa.F:521 :: Setting real_kernel for ELPA failed ***

    75 OT SD       0.80E-01    8.7     0.00000351     -6894.0780996652 -1.57E-04

 *** WARNING in fm/cp_fm_elpa.F:521 :: Setting real_kernel for ELPA failed ***

    76 OT DIIS     0.80E-01    8.9     0.00000677     -6894.0781034151 -3.75E-06

 *** WARNING in fm/cp_fm_elpa.F:521 :: Setting real_kernel for ELPA failed ***

    77 OT SD       0.80E-01    9.0     0.00000341     -6894.0781135937 -1.02E-05

 *** WARNING in fm/cp_fm_elpa.F:521 :: Setting real_kernel for ELPA failed ***

    78 OT DIIS     0.80E-01    8.6     0.00000586     -6894.0781177368 -4.14E-06

 *** WARNING in fm/cp_fm_elpa.F:521 :: Setting real_kernel for ELPA failed ***

    79 OT DIIS     0.80E-01    9.3     0.00000342     -6894.0781359460 -1.82E-05

 *** WARNING in fm/cp_fm_elpa.F:521 :: Setting real_kernel for ELPA failed ***

    80 OT DIIS     0.80E-01    8.2     0.00000338     -6894.0781469559 -1.10E-05

 *** WARNING in fm/cp_fm_elpa.F:521 :: Setting real_kernel for ELPA failed ***


 *** WARNING in fm/cp_fm_elpa.F:521 :: Setting real_kernel for ELPA failed ***

    81 OT DIIS     0.80E-01    8.9     0.00000341     -6894.0781930326 -4.61E-05

 *** WARNING in fm/cp_fm_elpa.F:521 :: Setting real_kernel for ELPA failed ***

    82 OT SD       0.80E-01    8.6     0.00000383     -6894.0782438084 -5.08E-05

 *** WARNING in fm/cp_fm_elpa.F:521 :: Setting real_kernel for ELPA failed ***

    83 OT SD       0.80E-01    8.0     0.00000999     -6894.0782451510 -1.34E-06

 *** WARNING in fm/cp_fm_elpa.F:521 :: Setting real_kernel for ELPA failed ***

    84 OT DIIS     0.80E-01    8.6     0.00005191     -6894.0781551514  9.00E-05

 *** WARNING in fm/cp_fm_elpa.F:521 :: Setting real_kernel for ELPA failed ***

    85 OT DIIS     0.80E-01    8.0     0.00000328     -6894.0782707507 -1.16E-04

 *** WARNING in fm/cp_fm_elpa.F:521 :: Setting real_kernel for ELPA failed ***

    86 OT SD       0.80E-01    8.1     0.00000428     -6894.0783470989 -7.63E-05

 *** WARNING in fm/cp_fm_elpa.F:521 :: Setting real_kernel for ELPA failed ***

    87 OT SD       0.80E-01    8.2     0.00000840     -6894.0783492379 -2.14E-06

 *** WARNING in fm/cp_fm_elpa.F:521 :: Setting real_kernel for ELPA failed ***

    88 OT DIIS     0.80E-01    8.2     0.00003624     -6894.0783053336  4.39E-05

 *** WARNING in fm/cp_fm_elpa.F:521 :: Setting real_kernel for ELPA failed ***

    89 OT SD       0.80E-01    7.9     0.00000328     -6894.0783284836 -2.31E-05

 *** WARNING in fm/cp_fm_elpa.F:521 :: Setting real_kernel for ELPA failed ***

    90 OT DIIS     0.80E-01    8.6     0.00000724     -6894.0783313834 -2.90E-06

 *** WARNING in fm/cp_fm_elpa.F:521 :: Setting real_kernel for ELPA failed ***

    91 OT DIIS     0.80E-01    8.3     0.00000312     -6894.0783403301 -8.95E-06

 *** WARNING in fm/cp_fm_elpa.F:521 :: Setting real_kernel for ELPA failed ***

    92 OT SD       0.80E-01    9.4     0.00000311     -6894.0783533841 -1.31E-05

 *** WARNING in fm/cp_fm_elpa.F:521 :: Setting real_kernel for ELPA failed ***

    93 OT DIIS     0.80E-01    8.1     0.00000492     -6894.0783572113 -3.83E-06

 *** WARNING in fm/cp_fm_elpa.F:521 :: Setting real_kernel for ELPA failed ***

    94 OT DIIS     0.80E-01    8.4     0.00000310     -6894.0783633783 -6.17E-06

 *** WARNING in fm/cp_fm_elpa.F:521 :: Setting real_kernel for ELPA failed ***

    95 OT DIIS     0.80E-01    8.5     0.00000301     -6894.0783880552 -2.47E-05

 *** WARNING in fm/cp_fm_elpa.F:521 :: Setting real_kernel for ELPA failed ***

    96 OT DIIS     0.80E-01    8.5     0.00000340     -6894.0784457652 -5.77E-05

 *** WARNING in fm/cp_fm_elpa.F:521 :: Setting real_kernel for ELPA failed ***

    97 OT DIIS     0.80E-01    8.4     0.00000312     -6894.0784673610 -2.16E-05

 *** WARNING in fm/cp_fm_elpa.F:521 :: Setting real_kernel for ELPA failed ***

    98 OT DIIS     0.80E-01    8.7     0.00000318     -6894.0784798576 -1.25E-05

 *** WARNING in fm/cp_fm_elpa.F:521 :: Setting real_kernel for ELPA failed ***

    99 OT SD       0.80E-01    8.8     0.00000318     -6894.0784813089 -1.45E-06

 *** WARNING in fm/cp_fm_elpa.F:521 :: Setting real_kernel for ELPA failed ***

   100 OT SD       0.80E-01    7.9     0.00000706     -6894.0784840115 -2.70E-06

  Leaving inner SCF loop after reaching   100 steps.


  Electronic density on regular grids:      -2431.9999999960        0.0000000040
  Core density on regular grids:             2431.9999999988       -0.0000000012
  Total charge density on r-space grids:        0.0000000029
  Total charge density g-space grids:           0.0000000029

  Overlap energy of the core charge distribution:               0.02767263596186
  Self energy of the core charge distribution:             -16017.19408509233290
  Core Hamiltonian energy:                                   4331.36004424531257
  Hartree energy:                                            6123.90028679159332
  Exchange-correlation energy:                              -1330.17633133504728
  Dispersion energy:                                           -1.99607125698893

  Total energy:                                             -6894.07848401150204

 *** WARNING in fm/cp_fm_elpa.F:521 :: Setting real_kernel for ELPA failed ***


  outer SCF iter =    3 RMS gradient =   0.71E-05 energy =      -6894.0784840115

  ----------------------------------- OT ---------------------------------------
  Minimizer      : DIIS                : direct inversion
                                         in the iterative subspace
                                         using   7 DIIS vectors
                                         safer DIIS on
  Preconditioner : FULL_SINGLE_INVERSE : inversion of 
                                         H + eS - 2*(Sc)(c^T*H*c+const)(Sc)^T
  Precond_solver : DEFAULT
  stepsize       :    0.08000000                  energy_gap     :    0.08000000
  eps_taylor     :   0.10000E-15                  max_taylor     :             4
  ----------------------------------- OT ---------------------------------------

  Step     Update method      Time    Convergence         Total energy    Change
  ------------------------------------------------------------------------------
     1 OT DIIS     0.80E-01   19.2     0.00003824     -6894.0784395381  4.45E-05
     2 OT DIIS     0.80E-01    7.0     0.00023183     -6894.0766587166  1.78E-03
     3 OT DIIS     0.80E-01    6.1     0.00000964     -6894.0784907879 -1.83E-03
     4 OT DIIS     0.80E-01    5.4     0.00000340     -6894.0784951837 -4.40E-06
     5 OT DIIS     0.80E-01    6.4     0.00000302     -6894.0784962909 -1.11E-06
     6 OT DIIS     0.80E-01    6.1     0.00000298     -6894.0784975560 -1.27E-06
     7 OT DIIS     0.80E-01    6.3     0.00000299     -6894.0785018568 -4.30E-06
     8 OT SD       0.80E-01    7.4     0.00000302     -6894.0785165927 -1.47E-05
     9 OT DIIS     0.80E-01    7.1     0.00000421     -6894.0785204941 -3.90E-06
    10 OT DIIS     0.80E-01    8.3     0.00000301     -6894.0785277313 -7.24E-06
    11 OT DIIS     0.80E-01    6.3     0.00000299     -6894.0785560112 -2.83E-05
    12 OT DIIS     0.80E-01    6.6     0.00000297     -6894.0785742875 -1.83E-05
    13 OT DIIS     0.80E-01    6.8     0.00000294     -6894.0785871661 -1.29E-05
    14 OT DIIS     0.80E-01    6.8     0.00000295     -6894.0786087563 -2.16E-05
    15 OT DIIS     0.80E-01    6.7     0.00000307     -6894.0786301983 -2.14E-05
    16 OT DIIS     0.80E-01    6.9     0.00000297     -6894.0786448066 -1.46E-05
    17 OT DIIS     0.80E-01    6.3     0.00000369     -6894.0787344743 -8.97E-05
    18 OT SD       0.80E-01    6.6     0.00000381     -6894.0787404192 -5.94E-06
    19 OT SD       0.80E-01    6.7     0.00000705     -6894.0787426590 -2.24E-06
    20 OT DIIS     0.80E-01    6.2     0.00002777     -6894.0787166835  2.60E-05

 *** WARNING in fm/cp_fm_elpa.F:521 :: Setting real_kernel for ELPA failed ***

    21 OT DIIS     0.80E-01    5.8     0.00000302     -6894.0787119688  4.71E-06
    22 OT DIIS     0.80E-01    6.4     0.00000290     -6894.0787193967 -7.43E-06
    23 OT DIIS     0.80E-01    6.5     0.00000294     -6894.0787263415 -6.94E-06
    24 OT DIIS     0.80E-01    6.8     0.00000283     -6894.0787291432 -2.80E-06
    25 OT DIIS     0.80E-01    6.9     0.00000283     -6894.0787319545 -2.81E-06
    26 OT DIIS     0.80E-01    6.2     0.00000285     -6894.0787414416 -9.49E-06
    27 OT DIIS     0.80E-01    6.4     0.00000282     -6894.0787582363 -1.68E-05
    28 OT DIIS     0.80E-01    6.5     0.00000290     -6894.0787702419 -1.20E-05
    29 OT DIIS     0.80E-01    6.3     0.00000302     -6894.0788262761 -5.60E-05
    30 OT DIIS     0.80E-01    6.7     0.00000289     -6894.0788289809 -2.70E-06
    31 OT SD       0.80E-01    6.5     0.00000288     -6894.0788300078 -1.03E-06
    32 OT DIIS     0.80E-01    7.0     0.00000528     -6894.0788329838 -2.98E-06
    33 OT DIIS     0.80E-01    6.8     0.00000285     -6894.0788489762 -1.60E-05
    34 OT SD       0.80E-01    7.8     0.00000286     -6894.0788764079 -2.74E-05
    35 OT DIIS     0.80E-01    5.6     0.00000420     -6894.0788795925 -3.18E-06
    36 OT DIIS     0.80E-01    7.3     0.00000289     -6894.0788901837 -1.06E-05
    37 OT DIIS     0.80E-01    7.7     0.00000294     -6894.0789136139 -2.34E-05
    38 OT SD       0.80E-01    7.2     0.00000300     -6894.0789485776 -3.50E-05
    39 OT DIIS     0.80E-01    6.8     0.00000654     -6894.0789508199 -2.24E-06
    40 OT DIIS     0.80E-01    5.9     0.00000280     -6894.0789517422 -9.22E-07

 *** WARNING in fm/cp_fm_elpa.F:521 :: Setting real_kernel for ELPA failed ***


 *** WARNING in fm/cp_fm_elpa.F:521 :: Setting real_kernel for ELPA failed ***

    41 OT SD       0.80E-01    7.9     0.00000286     -6894.0789823515 -3.06E-05

 *** WARNING in fm/cp_fm_elpa.F:521 :: Setting real_kernel for ELPA failed ***

    42 OT DIIS     0.80E-01    8.7     0.00000548     -6894.0789849900 -2.64E-06

 *** WARNING in fm/cp_fm_elpa.F:521 :: Setting real_kernel for ELPA failed ***

    43 OT DIIS     0.80E-01    9.1     0.00000288     -6894.0790247534 -3.98E-05

 *** WARNING in fm/cp_fm_elpa.F:521 :: Setting real_kernel for ELPA failed ***

    44 OT DIIS     0.80E-01    8.4     0.00000305     -6894.0790729043 -4.82E-05

 *** WARNING in fm/cp_fm_elpa.F:521 :: Setting real_kernel for ELPA failed ***

    45 OT SD       0.80E-01    8.8     0.00000337     -6894.0791032590 -3.04E-05

 *** WARNING in fm/cp_fm_elpa.F:521 :: Setting real_kernel for ELPA failed ***

    46 OT SD       0.80E-01    8.6     0.00000753     -6894.0791044830 -1.22E-06

 *** WARNING in fm/cp_fm_elpa.F:521 :: Setting real_kernel for ELPA failed ***

    47 OT DIIS     0.80E-01    8.7     0.00003258     -6894.0790666543  3.78E-05

 *** WARNING in fm/cp_fm_elpa.F:521 :: Setting real_kernel for ELPA failed ***

    48 OT DIIS     0.80E-01    7.5     0.00000272     -6894.0790882763 -2.16E-05

 *** WARNING in fm/cp_fm_elpa.F:521 :: Setting real_kernel for ELPA failed ***

    49 OT DIIS     0.80E-01    8.8     0.00000267     -6894.0790981247 -9.85E-06

 *** WARNING in fm/cp_fm_elpa.F:521 :: Setting real_kernel for ELPA failed ***

    50 OT DIIS     0.80E-01    7.9     0.00000262     -6894.0791053495 -7.22E-06

 *** WARNING in fm/cp_fm_elpa.F:521 :: Setting real_kernel for ELPA failed ***

    51 OT SD       0.80E-01    8.1     0.00000268     -6894.0791081546 -2.81E-06

 *** WARNING in fm/cp_fm_elpa.F:521 :: Setting real_kernel for ELPA failed ***

    52 OT DIIS     0.80E-01    7.9     0.00000483     -6894.0791107875 -2.63E-06

 *** WARNING in fm/cp_fm_elpa.F:521 :: Setting real_kernel for ELPA failed ***

    53 OT DIIS     0.80E-01    9.5     0.00000263     -6894.0791171296 -6.34E-06

 *** WARNING in fm/cp_fm_elpa.F:521 :: Setting real_kernel for ELPA failed ***

    54 OT DIIS     0.80E-01    8.3     0.00000263     -6894.0791279662 -1.08E-05

 *** WARNING in fm/cp_fm_elpa.F:521 :: Setting real_kernel for ELPA failed ***

    55 OT SD       0.80E-01    9.0     0.00000268     -6894.0791563901 -2.84E-05

 *** WARNING in fm/cp_fm_elpa.F:521 :: Setting real_kernel for ELPA failed ***

    56 OT DIIS     0.80E-01    8.0     0.00000511     -6894.0791587637 -2.37E-06

 *** WARNING in fm/cp_fm_elpa.F:521 :: Setting real_kernel for ELPA failed ***

    57 OT DIIS     0.80E-01    8.1     0.00000279     -6894.0791898564 -3.11E-05

 *** WARNING in fm/cp_fm_elpa.F:521 :: Setting real_kernel for ELPA failed ***

    58 OT SD       0.80E-01    9.1     0.00000269     -6894.0792152051 -2.53E-05

 *** WARNING in fm/cp_fm_elpa.F:521 :: Setting real_kernel for ELPA failed ***

    59 OT DIIS     0.80E-01    9.0     0.00000472     -6894.0792175307 -2.33E-06

 *** WARNING in fm/cp_fm_elpa.F:521 :: Setting real_kernel for ELPA failed ***

    60 OT DIIS     0.80E-01    8.0     0.00000262     -6894.0792355994 -1.81E-05

 *** WARNING in fm/cp_fm_elpa.F:521 :: Setting real_kernel for ELPA failed ***


 *** WARNING in fm/cp_fm_elpa.F:521 :: Setting real_kernel for ELPA failed ***

    61 OT DIIS     0.80E-01    8.1     0.00000288     -6894.0792813746 -4.58E-05

 *** WARNING in fm/cp_fm_elpa.F:521 :: Setting real_kernel for ELPA failed ***

    62 OT SD       0.80E-01    8.1     0.00000303     -6894.0793071371 -2.58E-05

 *** WARNING in fm/cp_fm_elpa.F:521 :: Setting real_kernel for ELPA failed ***

    63 OT SD       0.80E-01    8.2     0.00000659     -6894.0793083375 -1.20E-06

 *** WARNING in fm/cp_fm_elpa.F:521 :: Setting real_kernel for ELPA failed ***

    64 OT DIIS     0.80E-01    8.9     0.00002911     -6894.0792794602  2.89E-05

 *** WARNING in fm/cp_fm_elpa.F:521 :: Setting real_kernel for ELPA failed ***

    65 OT SD       0.80E-01    8.3     0.00000278     -6894.0793455727 -6.61E-05

 *** WARNING in fm/cp_fm_elpa.F:521 :: Setting real_kernel for ELPA failed ***

    66 OT DIIS     0.80E-01    8.8     0.00000594     -6894.0793470100 -1.44E-06

 *** WARNING in fm/cp_fm_elpa.F:521 :: Setting real_kernel for ELPA failed ***

    67 OT DIIS     0.80E-01    8.4     0.00000265     -6894.0793970834 -5.01E-05

 *** WARNING in fm/cp_fm_elpa.F:521 :: Setting real_kernel for ELPA failed ***

    68 OT DIIS     0.80E-01    8.8     0.00000349     -6894.0794403119 -4.32E-05

 *** WARNING in fm/cp_fm_elpa.F:521 :: Setting real_kernel for ELPA failed ***

    69 OT SD       0.80E-01    8.4     0.00000347     -6894.0794504436 -1.01E-05

 *** WARNING in fm/cp_fm_elpa.F:521 :: Setting real_kernel for ELPA failed ***

    70 OT SD       0.80E-01    8.0     0.00000789     -6894.0794503401  1.04E-07

 *** WARNING in fm/cp_fm_elpa.F:521 :: Setting real_kernel for ELPA failed ***

    71 OT DIIS     0.80E-01    8.6     0.00003207     -6894.0794119542  3.84E-05

 *** WARNING in fm/cp_fm_elpa.F:521 :: Setting real_kernel for ELPA failed ***

    72 OT DIIS     0.80E-01    8.1     0.00000239     -6894.0794313192 -1.94E-05

 *** WARNING in fm/cp_fm_elpa.F:521 :: Setting real_kernel for ELPA failed ***

    73 OT DIIS     0.80E-01    7.8     0.00000230     -6894.0794441797 -1.29E-05

 *** WARNING in fm/cp_fm_elpa.F:521 :: Setting real_kernel for ELPA failed ***

    74 OT SD       0.80E-01    8.8     0.00000243     -6894.0794452763 -1.10E-06

 *** WARNING in fm/cp_fm_elpa.F:521 :: Setting real_kernel for ELPA failed ***

    75 OT DIIS     0.80E-01    7.9     0.00000672     -6894.0794461652 -8.89E-07

 *** WARNING in fm/cp_fm_elpa.F:521 :: Setting real_kernel for ELPA failed ***

    76 OT DIIS     0.80E-01    8.7     0.00000227     -6894.0794493012 -3.14E-06

 *** WARNING in fm/cp_fm_elpa.F:521 :: Setting real_kernel for ELPA failed ***

    77 OT DIIS     0.80E-01    9.2     0.00000224     -6894.0794558309 -6.53E-06

 *** WARNING in fm/cp_fm_elpa.F:521 :: Setting real_kernel for ELPA failed ***

    78 OT DIIS     0.80E-01    8.1     0.00000223     -6894.0794738370 -1.80E-05

 *** WARNING in fm/cp_fm_elpa.F:521 :: Setting real_kernel for ELPA failed ***

    79 OT DIIS     0.80E-01    8.6     0.00000239     -6894.0794751744 -1.34E-06

 *** WARNING in fm/cp_fm_elpa.F:521 :: Setting real_kernel for ELPA failed ***

    80 OT DIIS     0.80E-01    8.7     0.00000274     -6894.0794758704 -6.96E-07

 *** WARNING in fm/cp_fm_elpa.F:521 :: Setting real_kernel for ELPA failed ***


 *** WARNING in fm/cp_fm_elpa.F:521 :: Setting real_kernel for ELPA failed ***

    81 OT SD       0.80E-01    7.5     0.00000219     -6894.0794982070 -2.23E-05

 *** WARNING in fm/cp_fm_elpa.F:521 :: Setting real_kernel for ELPA failed ***

    82 OT DIIS     0.80E-01    8.0     0.00000445     -6894.0794995997 -1.39E-06

 *** WARNING in fm/cp_fm_elpa.F:521 :: Setting real_kernel for ELPA failed ***

    83 OT DIIS     0.80E-01    9.4     0.00000219     -6894.0795190271 -1.94E-05

 *** WARNING in fm/cp_fm_elpa.F:521 :: Setting real_kernel for ELPA failed ***

    84 OT DIIS     0.80E-01    8.5     0.00000235     -6894.0795246309 -5.60E-06

 *** WARNING in fm/cp_fm_elpa.F:521 :: Setting real_kernel for ELPA failed ***

    85 OT SD       0.80E-01    8.6     0.00000236     -6894.0795346233 -9.99E-06

 *** WARNING in fm/cp_fm_elpa.F:521 :: Setting real_kernel for ELPA failed ***

    86 OT DIIS     0.80E-01    8.5     0.00000727     -6894.0795346001  2.32E-08

 *** WARNING in fm/cp_fm_elpa.F:521 :: Setting real_kernel for ELPA failed ***

    87 OT DIIS     0.80E-01    8.1     0.00000291     -6894.0795762375 -4.16E-05

 *** WARNING in fm/cp_fm_elpa.F:521 :: Setting real_kernel for ELPA failed ***

    88 OT SD       0.80E-01    8.4     0.00000411     -6894.0796295548 -5.33E-05

 *** WARNING in fm/cp_fm_elpa.F:521 :: Setting real_kernel for ELPA failed ***

    89 OT SD       0.80E-01    9.1     0.00000897     -6894.0796273567  2.20E-06

 *** WARNING in fm/cp_fm_elpa.F:521 :: Setting real_kernel for ELPA failed ***

    90 OT DIIS     0.80E-01    7.9     0.00002718     -6894.0795923733  3.50E-05

 *** WARNING in fm/cp_fm_elpa.F:521 :: Setting real_kernel for ELPA failed ***

    91 OT DIIS     0.80E-01    8.6     0.00000222     -6894.0795982924 -5.92E-06

 *** WARNING in fm/cp_fm_elpa.F:521 :: Setting real_kernel for ELPA failed ***

    92 OT SD       0.80E-01    8.9     0.00000215     -6894.0796260089 -2.77E-05

 *** WARNING in fm/cp_fm_elpa.F:521 :: Setting real_kernel for ELPA failed ***

    93 OT DIIS     0.80E-01    8.2     0.00000764     -6894.0796254621  5.47E-07

 *** WARNING in fm/cp_fm_elpa.F:521 :: Setting real_kernel for ELPA failed ***

    94 OT DIIS     0.80E-01    7.7     0.00000182     -6894.0796273152 -1.85E-06

 *** WARNING in fm/cp_fm_elpa.F:521 :: Setting real_kernel for ELPA failed ***

    95 OT DIIS     0.80E-01    8.4     0.00000178     -6894.0796339175 -6.60E-06

 *** WARNING in fm/cp_fm_elpa.F:521 :: Setting real_kernel for ELPA failed ***

    96 OT DIIS     0.80E-01    8.4     0.00000176     -6894.0796417838 -7.87E-06

 *** WARNING in fm/cp_fm_elpa.F:521 :: Setting real_kernel for ELPA failed ***

    97 OT SD       0.80E-01    7.8     0.00000182     -6894.0796593131 -1.75E-05

 *** WARNING in fm/cp_fm_elpa.F:521 :: Setting real_kernel for ELPA failed ***

    98 OT DIIS     0.80E-01    8.8     0.00000433     -6894.0796599513 -6.38E-07

 *** WARNING in fm/cp_fm_elpa.F:521 :: Setting real_kernel for ELPA failed ***

    99 OT SD       0.80E-01    8.2     0.00000185     -6894.0796736490 -1.37E-05

 *** WARNING in fm/cp_fm_elpa.F:521 :: Setting real_kernel for ELPA failed ***

   100 OT DIIS     0.80E-01    7.5     0.00000540     -6894.0796738643 -2.15E-07

  Leaving inner SCF loop after reaching   100 steps.


  Electronic density on regular grids:      -2431.9999999960        0.0000000040
  Core density on regular grids:             2431.9999999988       -0.0000000012
  Total charge density on r-space grids:        0.0000000029
  Total charge density g-space grids:           0.0000000029

  Overlap energy of the core charge distribution:               0.02767263596186
  Self energy of the core charge distribution:             -16017.19408509233290
  Core Hamiltonian energy:                                   4331.34739281457496
  Hartree energy:                                            6123.90691195194086
  Exchange-correlation energy:                              -1330.17149491746591
  Dispersion energy:                                           -1.99607125698893

  Total energy:                                             -6894.07967386431028

 *** WARNING in fm/cp_fm_elpa.F:521 :: Setting real_kernel for ELPA failed ***


  outer SCF iter =    4 RMS gradient =   0.54E-05 energy =      -6894.0796738643

  ----------------------------------- OT ---------------------------------------
  Minimizer      : DIIS                : direct inversion
                                         in the iterative subspace
                                         using   7 DIIS vectors
                                         safer DIIS on
  Preconditioner : FULL_SINGLE_INVERSE : inversion of 
                                         H + eS - 2*(Sc)(c^T*H*c+const)(Sc)^T
  Precond_solver : DEFAULT
[...]
 flops    64 x    64 x    96       10961427628032     100.0%      0.0%      0.0%     
 flops    64 x    96 x    64       10961427628032     100.0%      0.0%      0.0%     
 flops    96 x    64 x    64       10961427628032     100.0%      0.0%      0.0%     
 flops   273 x    64 x    96       11773281042432     100.0%      0.0%      0.0%     
 flops   273 x    96 x    64       11773281042432     100.0%      0.0%      0.0%     
 flops   279 x    64 x   282       12810037248000     100.0%      0.0%      0.0%     
 flops   282 x    64 x   279       12810037248000     100.0%      0.0%      0.0%     
 flops   273 x    64 x   282       15041463091200     100.0%      0.0%      0.0%     
 flops   282 x    64 x   273       15041463091200     100.0%      0.0%      0.0%     
 flops   279 x    64 x   279       15842200320000     100.0%      0.0%      0.0%     
 flops    14 x    13 x    64       17671829733376     100.0%      0.0%      0.0%     
 flops    13 x    14 x    64       17721890041856     100.0%      0.0%      0.0%     
 flops   273 x    64 x   279       18601809408000     100.0%      0.0%      0.0%     
 flops   279 x    64 x   273       18601809408000     100.0%      0.0%      0.0%     
 flops   273 x    64 x   273       21842124595200     100.0%      0.0%      0.0%     
 flops     9 x    32 x    13       24429683326464     100.0%      0.0%      0.0%     
 flops    13 x    32 x     9       24429683326464     100.0%      0.0%      0.0%     
 flops    14 x    32 x    14       29811448217600     100.0%      0.0%      0.0%     
 flops   274 x    64 x    64       31510417637376     100.0%      0.0%      0.0%     
 flops    64 x    64 x   282       34916070850560     100.0%      0.0%      0.0%     
 flops    13 x    13 x    64       39805162954752     100.0%      0.0%      0.0%     
 flops    64 x    64 x   279       43180779110400     100.0%      0.0%      0.0%     
 flops   282 x    64 x    64       43240573108224     100.0%      0.0%      0.0%     
 flops    64 x    64 x   273       50702592245760     100.0%      0.0%      0.0%     
 flops   279 x    64 x    64       53475708764160     100.0%      0.0%      0.0%     
 flops    64 x    64 x    64       58460947349504     100.0%      0.0%      0.0%     
 flops   273 x    64 x    64       62790832226304     100.0%      0.0%      0.0%     
 flops    14 x    32 x    13       92997001190912     100.0%      0.0%      0.0%     
 flops    13 x    32 x    14       92997001190912     100.0%      0.0%      0.0%     
 flops    13 x    32 x    13      203031212290816     100.0%      0.0%      0.0%     
 flops inhomo. stacks              77973779637504     100.0%      0.0%      0.0%
 flops total                         1.428250E+15     100.0%      0.0%      0.0%
 flops max/rank                      6.849785E+12     100.0%      0.0%      0.0%
 matmuls inhomo. stacks                  18717264     100.0%      0.0%      0.0%
 matmuls total                        51410186830     100.0%      0.0%      0.0%
 number of processed stacks            1120876182     100.0%      0.0%      0.0%
 average stack size                                    45.9       0.0       0.0
 marketing flops                     1.694977E+15
 -------------------------------------------------------------------------------
 # multiplications                          79332
 max memory usage/rank             426.225664E+06
 # max total images/rank                        1
 # max 3D layers                                1
 # MPI messages exchanged               873921312
 MPI messages size (bytes):
  total size                       114.257966E+12
  min size                           0.000000E+00
  max size                         636.192000E+03
  average size                     130.741711E+03
 MPI breakdown and total messages size (bytes):
             size <=      128             3697704                        0
       128 < size <=     8192                   0                        0
      8192 < size <=    32768           317561224           10404766613504
     32768 < size <=   131072            84333668            4267085168640
    131072 < size <=  4194304           468328716           99284510126792
   4194304 < size <= 16777216                   0                        0
  16777216 < size                               0                        0
 -------------------------------------------------------------------------------
 -                                                                             -
 -                      DBCSR MESSAGE PASSING PERFORMANCE                      -
 -                                                                             -
 -------------------------------------------------------------------------------
 ROUTINE             CALLS      AVE VOLUME [Bytes]
 MP_Bcast               94                     12.
 MP_Allreduce       376637                      8.
 MP_Alltoall        286706                 150601.
 MP_ISend          5710992                  74125.
 MP_IRecv          5710992                  73302.
 -------------------------------------------------------------------------------

 -------------------------------------------------------------------------------
 -                                                                             -
 -                                GRID STATISTICS                              -
 -                                                                             -
 -------------------------------------------------------------------------------
 LP    KERNEL             BACKEND                              COUNT     PERCENT
 4     collocate general  CPU                             1318375199      32.17%
 4     integrate general  CPU                             1280505374      31.24%
 3     collocate general  CPU                              635141291      15.50%
 3     integrate general  CPU                              604464778      14.75%
 5     integrate general  CPU                               72252171       1.76%
 2     collocate general  CPU                               68446308       1.67%
 2     integrate general  CPU                               64740475       1.58%
 0     collocate general  CPU                               27334584       0.67%
 1     integrate general  CPU                               27334584       0.67%
 -------------------------------------------------------------------------------

 MEMORY| Estimated peak process memory [MiB]                                 407

 -------------------------------------------------------------------------------
 -                                                                             -
 -                         MESSAGE PASSING PERFORMANCE                         -
 -                                                                             -
 -------------------------------------------------------------------------------

 ROUTINE             CALLS      AVE VOLUME [Bytes]
 MP_Group                4
 MP_Bcast           121453                   8787.
 MP_Allreduce       388384                    589.
 MP_Sync             49424
 MP_Alltoall        122659                5250882.
 MP_SendRecv       2561390                  18456.
 MP_ISendRecv      2561390                  18456.
 MP_Wait           2989964
 MP_ISend          1136565                 192363.
 MP_IRecv          1136565                 192363.
 -------------------------------------------------------------------------------


 -------------------------------------------------------------------------------
 -                                                                             -
 -                           R E F E R E N C E S                               -
 -                                                                             -
 -------------------------------------------------------------------------------
 
 CP2K version 2025.2 (Development Version), the CP2K developers group (2025).
 CP2K is freely available from https://www.cp2k.org/ .
 
 T. D. Kuehne, M. Iannuzzi, M. Del Ben, V. V. Rybkin, P. Seewald, F. Stein, T. 
 Laino, R. Z. Khaliullin, O. Schuett, F. Schiffmann, D. Golze, J. Wilhelm, S. 
 Chulkov, M. H. Bani-Hashemian, V. Weber, U. Borstnik, M. Taillefumier, A. S. 
 Jakobovits, A. Lazzaro, H. Pabst, T. Mueller, R. Schade, M. Guidon, S. 
 Andermatt, N. Holmberg, G. K. Schenter, A. Hehn, A. Bussy, F. Belleflamme, G. 
 Tabacchi, A. Gloess, M. Lass, I. Bethune, C. J. Mundy, C. Plessl, M. Watkins, 
 J. VandeVondele, M. Krack, J. Hutter.
 J. Chem. Phys. 152, 194103 (2020).
 CP2K: An electronic structure and molecular dynamics software package - 
 Quickstep: Efficient and accurate electronic structure calculations.
 https://doi.org/10.1063/5.0007045

 E. Caldeweyher, J. M. Mewes, S. Ehlert, S. Grimme.
 Phys. Chem. Chem. Phys. 22, 8499-8512 (2020).
 Extension and evaluation of the D4 London-dispersion model for periodic 
 systems.
 https://doi.org/10.1039/d0cp00502a

 E. Caldeweyher, S. Ehlert, A. Hansen, H. Neugebauer, S. Spicher, C. Bannwarth, 
 S. Grimme.
 J. Chem. Phys. 150, 154122 (2019).
 A generally applicable atomic-charge dependent London dispersion correction.
 https://doi.org/10.1063/1.5090222

 E. Caldeweyher, C. Bannwarth, S. Grimme.
 J. Chem. Phys. 147, 034112 (2017).
 Extension of the D3 dispersion coefficient model.
 https://doi.org/10.1063/1.4993215

 O. Schuett, P. Messmer, J. Hutter, J. VandeVondele.
 Electronic Structure Calculations on Graphics Processing Units, 173-190 (2016).
 GPU-Accelerated Sparse Matrix-Matrix Multiplication for Linear Scaling Density 
 Functional Theory.
 https://doi.org/10.1002/9781118670712.ch8

 J. Hutter, M. Iannuzzi, F. Schiffmann, J. VandeVondele.
 WIREs Comput Mol Sci. 4, 15-25 (2014).
 CP2K: atomistic simulations of condensed matter systems.
 https://doi.org/10.1002/wcms.1159

 U. Borstnik, J. VandeVondele, V. Weber, J. Hutter.
 Parallel Comput. 40, 47-58 (2014).
 Sparse matrix multiplication: The distributed block-compressed sparse row 
 library.
 https://doi.org/10.1016/j.parco.2014.03.012

 A. Marek, V. Blum, R. Johanni, V. Havu, B. Lang, T. Auckenthaler, A. Heinecke, 
 H. Bungartz, H. Lederer.
 J. Phys. Condens. Matter 26, 213201 (2014).
 The ELPA library: scalable parallel eigenvalue solutions for electronic 
 structure theory and computational science.
 https://doi.org/10.1088/0953-8984/26/21/213201

 J. VandeVondele, J. Hutter.
 J. Chem. Phys. 127, 114105 (2007).
 Gaussian basis sets for accurate calculations on molecular systems in gas and 
 condensed phases.
 https://doi.org/10.1063/1.2770708

 T. D. Khne, M. Krack, F. R. Mohamed, M. Parrinello.
 Phys. Rev. Lett. 98, 066401 (2007).
 Efficient and accurate Car-Parrinello-like approach to Born-Oppenheimer 
 molecular dynamics.
 https://doi.org/10.1103/PhysRevLett.98.066401

 J. VandeVondele, M. Krack, F. Mohamed, M. Parrinello, T. Chassaing, J. Hutter.
 Comput. Phys. Commun. 167, 103-128 (2005).
 QUICKSTEP: Fast and accurate density functional calculations using a mixed 
 Gaussian and plane waves approach.
 https://doi.org/10.1016/j.cpc.2004.12.014

 M. Krack.
 Theor. Chem. Acc. 114, 145-152 (2005).
 Pseudopotentials for H to Kr optimized for gradient-corrected 
 exchange-correlation functionals.
 https://doi.org/10.1007/s00214-005-0655-y

 M. Frigo, S. G. Johnson.
 Proc. IEEE 93, 216-231 (2005).
 The design and implementation of FFTW3.
 https://doi.org/10.1109/JPROC.2004.840301

 J. Kolafa.
 J. Comput. Chem. 25, 335-342 (2004).
 Time-reversible always stable predictor-corrector method for molecular dynamics 
 of polarizable molecules.
 https://doi.org/10.1002/jcc.10385

 J. VandeVondele, J. Hutter.
 J. Chem. Phys. 118, 4365-4369 (2003).
 An efficient orbital transformation method for electronic structure 
 calculations.
 https://doi.org/10.1063/1.1543154

 C. Hartwigsen, S. Goedecker, J. Hutter.
 Phys. Rev. B 58, 3641-3662 (1998).
 Relativistic separable dual-space Gaussian pseudopotentials from H to Rn.
 https://doi.org/10.1103/PhysRevB.58.3641

 G. Lippert, J. Hutter, M. Parrinello.
 Mol. Phys. 92, 477-487 (1997).
 A hybrid Gaussian and plane wave density functional scheme.
 https://doi.org/10.1080/002689797170220

 S. Goedecker, M. Teter, J. Hutter.
 Phys. Rev. B 54, 1703-1710 (1996).
 Separable dual-space Gaussian pseudopotentials.
 https://doi.org/10.1103/PhysRevB.54.1703

 J. P. Perdew, K. Burke, M. Ernzerhof.
 Phys. Rev. Lett. 77, 3865-3868 (1996).
 Generalized gradient approximation made simple.
 https://doi.org/10.1103/PhysRevLett.77.3865

 R. H. Byrd, P. H. Lu, J. Nocedal, C. Y. Zhu.
 SIAM J. Sci. Comput. 16, 1190-1208 (1995).
 A Limited Memory Algorithm for Bound Constrained Optimization.
 https://doi.org/10.1137/0916069


 -------------------------------------------------------------------------------
 -                                                                             -
 -                                T I M I N G                                  -
 -                                                                             -
 -------------------------------------------------------------------------------
 SUBROUTINE                       CALLS  ASD         SELF TIME        TOTAL TIME
                                MAXIMUM       AVERAGE  MAXIMUM  AVERAGE  MAXIMUM
 CP2K                                 1  1.0     0.31     0.51 38207.68 38207.68
 cp_geo_opt                           1  2.0     0.00     0.01 38206.55 38206.65
 geoopt_lbfgs                         1  3.0     0.04     0.11 38206.55 38206.64
 cp_opt_gopt_step                   200  4.0     0.09     0.34 38206.42 38206.44
 cp_eval_at                         218  5.0     0.07     0.27 38198.26 38198.33
 qs_forces                          218  6.0     0.18     0.75 38197.92 38198.00
 qs_energies                        218  7.0     0.12     0.63 37430.99 37432.14
 scf_env_do_scf                     218  8.0     0.09     0.55 29481.05 29481.48
 scf_env_do_scf_inner_loop         3747  9.0     0.44     4.01 27692.82 27931.29
 rebuild_ks_matrix                 3965 10.8     0.16     0.99 13218.57 13230.67
 qs_ks_build_kohn_sham_matrix      3965 11.8     1.48     7.25 13218.40 13230.65
 qs_ks_update_qs_env               3975 10.0     0.06     0.24 12578.28 12590.17
 fft_wrap_pw1pw2                  67623 15.2     0.71     2.53 11306.46 11490.33
 qs_scf_new_mos                    3747 10.0     0.02     0.13 10758.52 10782.46
 qs_scf_loop_do_ot                 3747 11.0     0.03     0.08 10758.50 10782.44
 ot_scf_mini                       3747 12.0     0.10     0.29 10301.29 10325.13
 fft_wrap_pw1pw2_200              43833 16.6    12.84    33.36  9319.28  9488.92
 fft3d_pb                         43833 17.6   127.66  1164.55  9258.69  9430.23
 mp_alltoall_z22v                111456 19.3  9116.52  9301.01  9116.52  9301.01
 dbcsr_multiply_generic           79332 15.0     4.06    12.39  9009.72  9074.83
 qs_energies_init_hamiltonians      218  8.0     0.05     0.29  7108.18  7108.44
 calculate_dispersion_pairpot       218  9.0     0.07     0.38  6896.20  6896.46
 calculate_dispersion_d4_pairpo     218 10.0  6712.98  6882.95  6712.98  6882.95
 qs_vxc_create                     3965 12.8     0.34     2.01  6843.30  6873.13
 xc_vxc_pw_create                  3965 13.8     3.66     5.81  6842.96  6873.06
 mp_waitall_1                   ******* 18.8  5918.83  6843.86  5918.83  6843.86
 xc_pw_derive                     23790 15.8     0.16     0.88  6129.84  6251.84
 ot_mini                           3747 13.0     0.22     1.25  5917.21  5930.92
 multiply_cannon                  79332 16.0     5.97    61.32  5561.83  5817.22
 multiply_cannon_loop             79332 17.0     6.54    42.65  5237.09  5506.18
 sum_up_and_integrate              3965 12.8     0.14     0.68  5359.77  5363.72
 integrate_v_rspace                3965 13.8     0.30     1.64  5358.37  5362.44
 qs_ot_get_derivative              3747 14.0     0.03     0.05  5300.03  5324.43
 qs_rho_update_rho_low             3965 10.1     0.07     0.52  4821.93  4863.27
 calculate_rho_elec                3965 11.1     1.69     2.42  4821.85  4863.25
 multiply_cannon_metrocomm3     1427976 18.0     3.22    16.71  3950.60  4372.26
 potential_pw2rs                   3965 14.8     0.29     1.14  4323.28  4329.03
 xc_rho_set_and_dset_create        3965 14.8     3.42     6.97  3600.91  3657.79
 cube_transpose_3                 23790 18.4    13.10   172.93  3308.49  3616.01
 cube_transpose_1                 35685 18.5     9.40    14.01  2276.87  3556.04
 density_rs2pw                     3965 12.1     0.28     3.02  3206.92  3537.93
 xc_pw_divergence                  3965 14.8     0.08     0.15  3228.45  3297.54
 cube_transpose_4                 20043 18.8    16.21   341.19  2989.33  3250.60
 qs_ot_get_p                       3975 12.9     0.04     0.13  3148.06  3171.40
 mp_waitany                      292020 16.4  2572.72  2973.69  2572.72  2973.69
 fft3d_ps                         23790 16.4     5.07     9.33  1984.46  2522.58
 fft_wrap_pw1pw2_70                7930 15.4     0.34     1.05  1896.14  2434.79
 yz_to_xz                         11895 18.8     2.48    32.15  1782.53  2336.02
 mp_sync                          49424 18.4  1784.44  2332.28  1784.44  2332.28
 cp_fm_diag_elpa                   1840 15.5     0.04     0.23  2265.90  2270.60
 cp_fm_diag_elpa_base              1840 16.5  2255.03  2258.20  2258.56  2259.53
 qs_ot_p2m_diag                    1552 14.0     0.38     0.68  2245.83  2256.81
 qs_ot_get_derivative_taylor       2234 15.0     0.06     0.10  2020.90  2035.32
 transfer_rs2pw                   16078 13.0     0.48    22.23  1706.17  2017.77
 mp_sum_l                        376461 16.1  1746.68  1957.73  1746.68  1957.73
 cp_dbcsr_syevd                    1552 15.0     0.34     2.00  1949.57  1950.88
 qs_ot_get_derivative_diag         1513 15.0     0.04     0.07  1827.41  1839.53
 transfer_pw2rs                   16078 15.8     0.15     0.41  1774.57  1780.00
 make_m2s                        158664 16.0     2.40    10.55  1679.70  1750.71
 make_images                     158664 17.0     4.71    25.21  1669.88  1715.93
 multiply_cannon_metrocomm1     1427976 18.0     3.20    16.19  1035.28  1670.72
 init_scf_loop                      228  9.0     0.02     0.14  1622.82  1628.41
 make_images_sizes               158664 18.0     0.16     1.37  1408.85  1582.37
 mp_alltoall_i44                 158664 19.0  1408.69  1582.23  1408.69  1582.23
 mp_sum_d                        126387 15.7  1212.23  1374.85  1212.23  1374.85
 transfer_rs2pw_70                 3965 14.1    19.56   223.73  1140.24  1311.88
 transfer_pw2rs_70                 3965 16.8    17.70   296.69  1115.50  1289.89
 transfer_rs2pw_200                4183 13.9    39.28   388.65   406.52  1102.40
 cube_transpose_2                 31938 17.8     7.49    45.92   588.19  1072.17
 mp_alltoall_d11v                 66936 16.3   882.84   993.86   882.84   993.86
 qs_ot_get_orbitals                3747 13.0     0.02     0.02   817.30   823.15
 grid_integrate_task_list          3965 14.8   645.49   803.21   645.49   803.21
 write_mo_set_to_restart           3747 10.0     0.12     6.16   514.70   797.83
 write_mo_set_low                   288 11.0     0.01     0.07   501.75   783.10
 -------------------------------------------------------------------------------

 The number of warnings for this run is : 1840
 
 -------------------------------------------------------------------------------
  **** **** ******  **  PROGRAM ENDED AT                 2025-11-07 21:24:38.372
 ***** ** ***  *** **   PROGRAM RAN ON                                    cn5173
 **    ****   ******    PROGRAM RAN BY                                    tiansc
 ***** **    ** ** **   PROGRAM PROCESS ID                                259386
  **** **  *******  **  PROGRAM STOPPED IN /fs2/home/tiansc/Ov_Ni-FeOx_AIMD/test
                                           /202
