 DBCSR| CPU Multiplication driver                                           XSMM (U)
 DBCSR| Multrec recursion limit                                              512 (U)
 DBCSR| Multiplication stack size                                          30000 (D)
 DBCSR| Maximum elements for images                                    UNLIMITED (U)
 DBCSR| Multiplicative factor virtual images                                   1 (U)
 DBCSR| Use multiplication densification                                       F (D)
 DBCSR| Multiplication size stacks                                             3 (U)
 DBCSR| Use memory pool for CPU allocation                                     F (U)
 DBCSR| Number of 3D layers                                               SINGLE (U)
 DBCSR| Use MPI memory allocation                                              F (U)
 DBCSR| Use RMA algorithm                                                      F (U)
 DBCSR| Use Communication thread                                               T (U)
 DBCSR| Communication thread load                                             30 (D)
 DBCSR| MPI: My process id                                                     0
 DBCSR| MPI: Number of processes                                               1
 DBCSR| OMP: Current number of threads                                        16
 DBCSR| OMP: Max number of threads                                            16
 DBCSR| ACC: Number of devices/node                                            1
 DBCSR| ACC: Number of stack-buffers per thread                                8 (U)
 DBCSR| ACC: Avoid driver after busy                                           F (U)
 DBCSR| ACC: Process inhomogeneous stacks                                      T (U)
 DBCSR| ACC: Min. flop for processing                                          0 (U)
 DBCSR| ACC: Use G2G algorithm                                                 F (D)
 DBCSR| ACC: Min. flop for sorting                                          4000 (U)
 DBCSR| ACC: Number of binning bins                                         4096 (U)
 DBCSR| ACC: Size of binning bins                                             16 (U)
 DBCSR| ACC: GPU backend is enabled                                            T (D)
 DBCSR| Split modifier for TAS multiplication algorithm                  1.0E+00 (U)


  **** **** ******  **  PROGRAM STARTED AT               2025-10-11 20:50:38.886
 ***** ** ***  *** **   PROGRAM STARTED ON                          3a562c6048d9
 **    ****   ******    PROGRAM STARTED BY                             <unknown>
 ***** **    ** ** **   PROGRAM PROCESS ID                                   614
  **** **  *******  **  PROGRAM STARTED IN                             /mnt/cp2k

 CP2K| version string:                                       CP2K version 2025.1
 CP2K| source code revision number:                                  git:9635df4
 CP2K| cp2kflags: omp libint fftw3 libxc libgrpp pexsi elpa elpa_nvidia_gpu para
 CP2K|            llel scalapack cosma quip xsmm dbcsr_acc plumed2 spglib libdft
 CP2K|            td4 sirius libvori libbqb offload_cuda spla_gemm_offloading li
 CP2K|            ibvdwxc hdf5 trexio
 CP2K| is freely available from                            https://www.cp2k.org/
 CP2K| Program compiled at                          Tue Jan 14 21:07:27 UTC 2025
 CP2K| Program compiled on                                          eb3a76499499
 CP2K| Program compiled for                                           local_cuda
 CP2K| Data directory path                                        /opt/cp2k/data
 CP2K| Input file name                                           HAP_402_opt.inp

 GLOBAL| Force Environment number                                              1
 GLOBAL| Basis set file name                                        BASIS_MOLOPT
 GLOBAL| Potential file name                                      GTH_POTENTIALS
 GLOBAL| MM Potential file name                                     MM_POTENTIAL
 GLOBAL| Coordinate file name                                  HAP_402_clean.xyz
 GLOBAL| Method name                                                        CP2K
 GLOBAL| Project name                                                HAP_402_opt
 GLOBAL| Run type                                                        GEO_OPT
 GLOBAL| FFT library                                                       FFTW3
 GLOBAL| Diagonalization library                                            ELPA
 GLOBAL| DGEMM library                                                      SPLA
 GLOBAL| Minimum number of eigenvectors for ELPA usage                        16
 GLOBAL| Orthonormality check for eigenvectors                          DISABLED
 GLOBAL| Matrix multiplication library                                     COSMA
 GLOBAL| All-to-all communication in single precision                          F
 GLOBAL| FFTs using library dependent lengths                                  F
 GLOBAL| Grid backend                                                       AUTO
 GLOBAL| Global print level                                                  LOW
 GLOBAL| MPI I/O enabled                                                       T
 GLOBAL| Total number of message passing processes                             1
 GLOBAL| Number of threads for this process                                   16
 GLOBAL| This output is from process                                           0
 GLOBAL| OpenMP stack size per thread (OMP_STACKSIZE)                        16M
 GLOBAL| CPU model name                           Intel(R) Core(TM) Ultra 7 265K
 GLOBAL| CPUID                                                              1002
 GLOBAL| Compiled for CPUID                                                    0

 *** HINT in environment.F:928 :: The compiler target flags (generic) used ***
 *** to build this binary cannot exploit all extensions of this CPU model  ***
 *** (x86_avx2). Consider compiler target flags as part of FCFLAGS and     ***
 *** CFLAGS (ARCH file).                                                   ***


 MEMORY| system memory details [Kb]
 MEMORY|                        rank 0           min           max       average
 MEMORY| MemTotal             49330332      49330332      49330332      49330332
 MEMORY| MemFree              47818424      47818424      47818424      47818424
 MEMORY| Buffers                  8548          8548          8548          8548
 MEMORY| Cached                 666408        666408        666408        666408
 MEMORY| Slab                   110888        110888        110888        110888
 MEMORY| SReclaimable            39512         39512         39512         39512
 MEMORY| MemLikelyFree        48532892      48532892      48532892      48532892


 GENERATE|  Preliminary Number of Bonds generated:                             0
 GENERATE|  Achieved consistency in connectivity generation.

 *******************************************************************************
 *******************************************************************************
 **                                                                           **
 **     #####                         ##              ##                      **
 **    ##   ##            ##          ##              ##                      **
 **   ##     ##                       ##            ######                    **
 **   ##     ##  ##   ##  ##   #####  ##  ##   ####   ##    #####    #####    **
 **   ##     ##  ##   ##  ##  ##      ## ##   ##      ##   ##   ##  ##   ##   **
 **   ##  ## ##  ##   ##  ##  ##      ####     ###    ##   ######   ######    **
 **    ##  ###   ##   ##  ##  ##      ## ##      ##   ##   ##       ##        **
 **     #######   #####   ##   #####  ##  ##  ####    ##    #####   ##        **
 **           ##                                                    ##        **
 **                                                                           **
 **                                                ... make the atoms dance   **
 **                                                                           **
 **            Copyright (C) by CP2K developers group (2000-2025)             **
 **                      J. Chem. Phys. 152, 194103 (2020)                    **
 **                                                                           **
 *******************************************************************************


 TOTAL NUMBERS AND MAXIMUM NUMBERS

  Total number of            - Atomic kinds:                                   5
                             - Atoms:                                        387
                             - Shell sets:                                   387
                             - Shells:                                      2015
                             - Primitive Cartesian functions:               2031
                             - Cartesian basis functions:                   5338
                             - Spherical basis functions:                   4983

  Maximum angular momentum of- Orbital basis functions:                        2
                             - Local part of the GTH pseudopotential:          2
                             - Non-local part of the GTH pseudopotential:      3


 SCF PARAMETERS         Density guess:                                    ATOMIC
                        --------------------------------------------------------
                        max_scf:                                             100
                        max_scf_history:                                       0
                        max_diis:                                              4
                        --------------------------------------------------------
                        eps_scf:                                        1.00E-06
                        eps_scf_history:                                0.00E+00
                        eps_diis:                                       1.00E-01
                        eps_eigval:                                     1.00E-05
                        --------------------------------------------------------
                        level_shift [a.u.]:                             0.000000
                        --------------------------------------------------------
                        Outer loop SCF in use 
                        No variables optimised in outer loop
                        eps_scf                                         1.00E-06
                        max_scf                                               50
                        No outer loop optimization
                        step_size                                       5.00E-01

 *******************************************************************************
 ***                     STARTING GEOMETRY OPTIMIZATION                      ***
 ***                                 L-BFGS                                  ***
 *******************************************************************************

 --------------------------
 OPTIMIZATION STEP:      1
 --------------------------

 Number of electrons:                                                       2432
 Number of occupied orbitals:                                               1216
 Number of molecular orbitals:                                              1216

 Number of orbital functions:                                               4983
 Number of independent orbital functions:                                   4983

 Extrapolation method: initial_guess


 SCF WAVEFUNCTION OPTIMIZATION

  ----------------------------------- OT ---------------------------------------
  Minimizer      : DIIS                : direct inversion
                                         in the iterative subspace
                                         using   7 DIIS vectors
                                         safer DIIS on
  Preconditioner : FULL_SINGLE_INVERSE : inversion of 
                                         H + eS - 2*(Sc)(c^T*H*c+const)(Sc)^T
  Precond_solver : DEFAULT
  stepsize       :    0.08000000                  energy_gap     :    0.08000000
  eps_taylor     :   0.10000E-15                  max_taylor     :             4
  ----------------------------------- OT ---------------------------------------

  Step     Update method      Time    Convergence         Total energy    Change
  ------------------------------------------------------------------------------
     1 OT DIIS     0.80E-01   29.9     0.01595391     -6697.9879778943 -6.70E+03
     2 OT DIIS     0.80E-01   15.1     0.00952043     -6772.0887931480 -7.41E+01
     3 OT DIIS     0.80E-01   14.7     0.00690811     -6803.7084419907 -3.16E+01
     4 OT DIIS     0.80E-01   14.8     0.00618037     -6832.0658170610 -2.84E+01
     5 OT DIIS     0.80E-01   15.0     0.00411371     -6845.2319334516 -1.32E+01
     6 OT DIIS     0.80E-01   15.0     0.00312753     -6858.4217149355 -1.32E+01
     7 OT DIIS     0.80E-01   15.0     0.00252694     -6867.0680779665 -8.65E+00
     8 OT DIIS     0.80E-01   15.0     0.00205373     -6873.5413918980 -6.47E+00
     9 OT DIIS     0.80E-01   14.8     0.00159003     -6879.3193463637 -5.78E+00
    10 OT DIIS     0.80E-01   15.2     0.00121931     -6883.3240516324 -4.00E+00
    11 OT DIIS     0.80E-01   14.9     0.00098210     -6885.5447343410 -2.22E+00
    12 OT DIIS     0.80E-01   15.0     0.00080389     -6887.0823707761 -1.54E+00
    13 OT DIIS     0.80E-01   16.7     0.00066653     -6888.1794466204 -1.10E+00
    14 OT DIIS     0.80E-01   14.8     0.00056663     -6888.9329525864 -7.54E-01
    15 OT DIIS     0.80E-01   15.1     0.00047545     -6889.5737654251 -6.41E-01
    16 OT DIIS     0.80E-01   14.8     0.00041078     -6890.0060221993 -4.32E-01
    17 OT DIIS     0.80E-01   14.7     0.00036396     -6890.3130273759 -3.07E-01
    18 OT DIIS     0.80E-01   15.0     0.00031680     -6890.6103275663 -2.97E-01
    19 OT DIIS     0.80E-01   14.7     0.00027834     -6890.8437168633 -2.33E-01
    20 OT DIIS     0.80E-01   14.6     0.00024727     -6891.0245523609 -1.81E-01
    21 OT DIIS     0.80E-01   14.7     0.00022303     -6891.1636515617 -1.39E-01
    22 OT DIIS     0.80E-01   14.8     0.00020175     -6891.2877525009 -1.24E-01
    23 OT DIIS     0.80E-01   14.7     0.00018122     -6891.4041003989 -1.16E-01
    24 OT DIIS     0.80E-01   14.8     0.00016531     -6891.4834007679 -7.93E-02
    25 OT DIIS     0.80E-01   14.6     0.00014857     -6891.5739477034 -9.05E-02
    26 OT DIIS     0.80E-01   14.8     0.00013457     -6891.6475006666 -7.36E-02
    27 OT DIIS     0.80E-01   14.9     0.00012553     -6891.6894269246 -4.19E-02
    28 OT DIIS     0.80E-01   14.7     0.00011509     -6891.7397890351 -5.04E-02
    29 OT DIIS     0.80E-01   14.8     0.00010480     -6891.7909695656 -5.12E-02
    30 OT DIIS     0.80E-01   15.0     0.00009856     -6891.8226961444 -3.17E-02
    31 OT DIIS     0.80E-01   15.0     0.00009210     -6891.8490697241 -2.64E-02
    32 OT DIIS     0.80E-01   14.7     0.00008257     -6891.8931669251 -4.41E-02
    33 OT DIIS     0.80E-01   14.8     0.00007688     -6891.9197772428 -2.66E-02
    34 OT DIIS     0.80E-01   15.1     0.00007281     -6891.9354531718 -1.57E-02
    35 OT DIIS     0.80E-01   15.2     0.00006573     -6891.9632478239 -2.78E-02
    36 OT DIIS     0.80E-01   14.8     0.00006120     -6891.9819519388 -1.87E-02
    37 OT DIIS     0.80E-01   14.7     0.00005802     -6891.9961869295 -1.42E-02
    38 OT DIIS     0.80E-01   14.6     0.00005424     -6892.0099018762 -1.37E-02
    39 OT DIIS     0.80E-01   14.7     0.00005051     -6892.0260304923 -1.61E-02
    40 OT DIIS     0.80E-01   14.6     0.00004735     -6892.0387243826 -1.27E-02
    41 OT DIIS     0.80E-01   14.7     0.00004551     -6892.0467231229 -8.00E-03
    42 OT DIIS     0.80E-01   15.1     0.00004340     -6892.0553388263 -8.62E-03
    43 OT DIIS     0.80E-01   14.9     0.00004106     -6892.0660024583 -1.07E-02
    44 OT DIIS     0.80E-01   14.9     0.00003955     -6892.0729191740 -6.92E-03
    45 OT DIIS     0.80E-01   14.9     0.00003776     -6892.0791244594 -6.21E-03
    46 OT DIIS     0.80E-01   14.8     0.00003546     -6892.0901187947 -1.10E-02
    47 OT DIIS     0.80E-01   14.6     0.00003387     -6892.0970809847 -6.96E-03
    48 OT DIIS     0.80E-01   14.9     0.00003259     -6892.1012538815 -4.17E-03
    49 OT DIIS     0.80E-01   14.8     0.00003050     -6892.1088211027 -7.57E-03
    50 OT DIIS     0.80E-01   14.7     0.00002929     -6892.1139798237 -5.16E-03
    51 OT DIIS     0.80E-01   14.8     0.00002836     -6892.1176207694 -3.64E-03
    52 OT DIIS     0.80E-01   15.1     0.00002676     -6892.1233742643 -5.75E-03
    53 OT DIIS     0.80E-01   14.9     0.00002589     -6892.1264600310 -3.09E-03
    54 OT DIIS     0.80E-01   15.3     0.00002509     -6892.1300529183 -3.59E-03
    55 OT DIIS     0.80E-01   14.3     0.00002446     -6892.1330758545 -3.02E-03
    56 OT DIIS     0.80E-01   15.1     0.00002351     -6892.1368637084 -3.79E-03
    57 OT DIIS     0.80E-01   14.8     0.00002282     -6892.1398063629 -2.94E-03
    58 OT DIIS     0.80E-01   14.6     0.00002186     -6892.1438302765 -4.02E-03
    59 OT DIIS     0.80E-01   14.7     0.00002115     -6892.1460842185 -2.25E-03
    60 OT DIIS     0.80E-01   14.8     0.00002063     -6892.1496057437 -3.52E-03
    61 OT DIIS     0.80E-01   14.9     0.00002001     -6892.1514998130 -1.89E-03
    62 OT DIIS     0.80E-01   15.0     0.00001964     -6892.1532924472 -1.79E-03
    63 OT DIIS     0.80E-01   14.9     0.00001918     -6892.1554459188 -2.15E-03
    64 OT DIIS     0.80E-01   14.8     0.00001868     -6892.1580292758 -2.58E-03
    65 OT DIIS     0.80E-01   14.7     0.00001820     -6892.1605289881 -2.50E-03
    66 OT DIIS     0.80E-01   14.8     0.00001772     -6892.1629618575 -2.43E-03
    67 OT DIIS     0.80E-01   15.1     0.00001720     -6892.1656578682 -2.70E-03
    68 OT DIIS     0.80E-01   14.6     0.00001688     -6892.1672767161 -1.62E-03
    69 OT DIIS     0.80E-01   14.9     0.00001652     -6892.1693938992 -2.12E-03
    70 OT DIIS     0.80E-01   14.9     0.00001602     -6892.1717636797 -2.37E-03
    71 OT DIIS     0.80E-01   14.8     0.00001564     -6892.1746614110 -2.90E-03
    72 OT DIIS     0.80E-01   14.6     0.00001539     -6892.1765062446 -1.84E-03
    73 OT DIIS     0.80E-01   14.6     0.00001502     -6892.1771649762 -6.59E-04
    74 OT DIIS     0.80E-01   14.9     0.00001491     -6892.1811867167 -4.02E-03
    75 OT DIIS     0.80E-01   14.9     0.00001396     -6892.1828588186 -1.67E-03
    76 OT DIIS     0.80E-01   14.5     0.00001362     -6892.1845413257 -1.68E-03
    77 OT DIIS     0.80E-01   14.3     0.00001315     -6892.1859347507 -1.39E-03
    78 OT DIIS     0.80E-01   14.8     0.00001285     -6892.1874919231 -1.56E-03
    79 OT DIIS     0.80E-01   14.8     0.00001257     -6892.1884180785 -9.26E-04
    80 OT DIIS     0.80E-01   14.7     0.00001236     -6892.1892370810 -8.19E-04
    81 OT DIIS     0.80E-01   14.9     0.00001204     -6892.1897560451 -5.19E-04
    82 OT DIIS     0.80E-01   14.6     0.00001162     -6892.1919231475 -2.17E-03
    83 OT DIIS     0.80E-01   14.8     0.00001136     -6892.1923017789 -3.79E-04
    84 OT DIIS     0.80E-01   14.5     0.00001122     -6892.1927356055 -4.34E-04
    85 OT DIIS     0.80E-01   14.7     0.00001095     -6892.1937349072 -9.99E-04
    86 OT DIIS     0.80E-01   14.7     0.00001055     -6892.1958357503 -2.10E-03
    87 OT DIIS     0.80E-01   14.5     0.00001034     -6892.1962761890 -4.40E-04
    88 OT DIIS     0.80E-01   14.7     0.00001018     -6892.1969829265 -7.07E-04
    89 OT DIIS     0.80E-01   14.6     0.00000986     -6892.1983913214 -1.41E-03
    90 OT DIIS     0.80E-01   14.9     0.00000972     -6892.1989800658 -5.89E-04
    91 OT DIIS     0.80E-01   14.9     0.00000940     -6892.2002008628 -1.22E-03
    92 OT DIIS     0.80E-01   14.6     0.00000921     -6892.2010994231 -8.99E-04
    93 OT DIIS     0.80E-01   14.5     0.00000912     -6892.2020435292 -9.44E-04
    94 OT DIIS     0.80E-01   14.7     0.00000904     -6892.2021714767 -1.28E-04
    95 OT DIIS     0.80E-01   14.7     0.00000875     -6892.2034965080 -1.33E-03
    96 OT DIIS     0.80E-01   14.8     0.00000852     -6892.2043048760 -8.08E-04
    97 OT DIIS     0.80E-01   14.8     0.00000838     -6892.2054820449 -1.18E-03
    98 OT DIIS     0.80E-01   15.0     0.00000813     -6892.2059669819 -4.85E-04
    99 OT DIIS     0.80E-01   14.6     0.00000793     -6892.2067954275 -8.28E-04
   100 OT SD       0.80E-01   14.7     0.00000773     -6892.2079299953 -1.13E-03

  Leaving inner SCF loop after reaching   100 steps.


  Electronic density on regular grids:      -2432.0000000062       -0.0000000062
  Core density on regular grids:             2431.9999999988       -0.0000000012
  Total charge density on r-space grids:       -0.0000000073
  Total charge density g-space grids:          -0.0000000073

  Overlap energy of the core charge distribution:               0.02796246096819
  Self energy of the core charge distribution:             -16017.19408509233290
  Core Hamiltonian energy:                                   4327.14402609087028
  Hartree energy:                                            6127.99014376370633
  Exchange-correlation energy:                              -1328.35278581305101
  Dispersion energy:                                           -1.82319140545317

  Total energy:                                             -6892.20792999529294

  outer SCF iter =    1 RMS gradient =   0.77E-05 energy =      -6892.2079299953

  ----------------------------------- OT ---------------------------------------
  Minimizer      : DIIS                : direct inversion
                                         in the iterative subspace
                                         using   7 DIIS vectors
                                         safer DIIS on
  Preconditioner : FULL_SINGLE_INVERSE : inversion of 
                                         H + eS - 2*(Sc)(c^T*H*c+const)(Sc)^T
  Precond_solver : DEFAULT
  stepsize       :    0.08000000                  energy_gap     :    0.08000000
  eps_taylor     :   0.10000E-15                  max_taylor     :             4
  ----------------------------------- OT ---------------------------------------

  Step     Update method      Time    Convergence         Total energy    Change
  ------------------------------------------------------------------------------
     1 OT DIIS     0.80E-01   40.8     0.00010635     -6892.2079586633 -2.87E-05
     2 OT DIIS     0.80E-01   14.3     0.00011894     -6892.2112897468 -3.33E-03
     3 OT DIIS     0.80E-01   14.2     0.00012971     -6892.2122478260 -9.58E-04
     4 OT DIIS     0.80E-01   13.8     0.00010270     -6892.2136745895 -1.43E-03
     5 OT DIIS     0.80E-01   14.4     0.00008433     -6892.2153740221 -1.70E-03
     6 OT DIIS     0.80E-01   14.5     0.00006629     -6892.2163142514 -9.40E-04
     7 OT DIIS     0.80E-01   14.5     0.00005880     -6892.2174187637 -1.10E-03
     8 OT DIIS     0.80E-01   15.0     0.00005145     -6892.2183200785 -9.01E-04
     9 OT DIIS     0.80E-01   15.1     0.00004278     -6892.2190373416 -7.17E-04
    10 OT DIIS     0.80E-01   14.9     0.00004406     -6892.2198516751 -8.14E-04
    11 OT DIIS     0.80E-01   15.0     0.00004008     -6892.2207035039 -8.52E-04
    12 OT DIIS     0.80E-01   14.9     0.00003838     -6892.2214279458 -7.24E-04
    13 OT DIIS     0.80E-01   15.0     0.00003991     -6892.2221668078 -7.39E-04
    14 OT DIIS     0.80E-01   15.1     0.00003658     -6892.2228048126 -6.38E-04
    15 OT DIIS     0.80E-01   15.1     0.00003714     -6892.2232338748 -4.29E-04
    16 OT DIIS     0.80E-01   15.0     0.00003484     -6892.2236649421 -4.31E-04
    17 OT DIIS     0.80E-01   14.9     0.00003287     -6892.2240905188 -4.26E-04
    18 OT DIIS     0.80E-01   15.1     0.00002908     -6892.2245396580 -4.49E-04
    19 OT DIIS     0.80E-01   15.0     0.00003268     -6892.2246921755 -1.53E-04
    20 OT DIIS     0.80E-01   15.0     0.00003166     -6892.2249594629 -2.67E-04
    21 OT DIIS     0.80E-01   15.0     0.00003012     -6892.2251744292 -2.15E-04
    22 OT DIIS     0.80E-01   15.4     0.00003008     -6892.2251713588  3.07E-06
    23 OT DIIS     0.80E-01   15.0     0.00002857     -6892.2253005394 -1.29E-04
    24 OT DIIS     0.80E-01   15.4     0.00002503     -6892.2253836754 -8.31E-05
    25 OT DIIS     0.80E-01   15.1     0.00002325     -6892.2254671737 -8.35E-05
    26 OT DIIS     0.80E-01   15.2     0.00001993     -6892.2254945505 -2.74E-05
    27 OT DIIS     0.80E-01   15.0     0.00001968     -6892.2255725066 -7.80E-05
    28 OT DIIS     0.80E-01   14.8     0.00001913     -6892.2256466857 -7.42E-05
    29 OT DIIS     0.80E-01   14.8     0.00001916     -6892.2257198607 -7.32E-05
    30 OT DIIS     0.80E-01   15.2     0.00001990     -6892.2257584259 -3.86E-05
    31 OT DIIS     0.80E-01   14.7     0.00001999     -6892.2258450479 -8.66E-05
    32 OT DIIS     0.80E-01   14.9     0.00001942     -6892.2259204841 -7.54E-05
    33 OT DIIS     0.80E-01   14.8     0.00001968     -6892.2260029129 -8.24E-05
    34 OT DIIS     0.80E-01   14.9     0.00001838     -6892.2260085533 -5.64E-06
    35 OT DIIS     0.80E-01   14.9     0.00001804     -6892.2260915053 -8.30E-05
    36 OT DIIS     0.80E-01   14.9     0.00001749     -6892.2261400892 -4.86E-05
    37 OT DIIS     0.80E-01   15.0     0.00001686     -6892.2261779964 -3.79E-05
    38 OT DIIS     0.80E-01   15.0     0.00001657     -6892.2262050810 -2.71E-05
    39 OT DIIS     0.80E-01   14.9     0.00001603     -6892.2262542036 -4.91E-05
    40 OT DIIS     0.80E-01   15.0     0.00001543     -6892.2263036591 -4.95E-05
    41 OT DIIS     0.80E-01   14.6     0.00001569     -6892.2263662857 -6.26E-05
    42 OT DIIS     0.80E-01   15.0     0.00001556     -6892.2263827290 -1.64E-05
    43 OT DIIS     0.80E-01   14.8     0.00001565     -6892.2264643410 -8.16E-05
    44 OT DIIS     0.80E-01   15.1     0.00001602     -6892.2265163274 -5.20E-05
    45 OT DIIS     0.80E-01   14.9     0.00001609     -6892.2265477678 -3.14E-05
    46 OT DIIS     0.80E-01   15.1     0.00001624     -6892.2265838773 -3.61E-05
    47 OT DIIS     0.80E-01   14.5     0.00001567     -6892.2266159696 -3.21E-05
    48 OT DIIS     0.80E-01   14.7     0.00001460     -6892.2266505790 -3.46E-05
    49 OT DIIS     0.80E-01   14.7     0.00001421     -6892.2266941961 -4.36E-05
    50 OT DIIS     0.80E-01   15.0     0.00001367     -6892.2267003902 -6.19E-06
    51 OT DIIS     0.80E-01   15.0     0.00001334     -6892.2267539084 -5.35E-05
    52 OT DIIS     0.80E-01   15.1     0.00001349     -6892.2267942352 -4.03E-05
    53 OT DIIS     0.80E-01   14.8     0.00001375     -6892.2268235208 -2.93E-05
    54 OT DIIS     0.80E-01   14.6     0.00001423     -6892.2268711942 -4.77E-05
    55 OT DIIS     0.80E-01   14.9     0.00001442     -6892.2269035577 -3.24E-05
    56 OT DIIS     0.80E-01   15.0     0.00001412     -6892.2269384910 -3.49E-05
    57 OT DIIS     0.80E-01   14.7     0.00001391     -6892.2269789856 -4.05E-05
    58 OT DIIS     0.80E-01   14.9     0.00001348     -6892.2269837418 -4.76E-06
    59 OT DIIS     0.80E-01   14.9     0.00001287     -6892.2270244113 -4.07E-05
    60 OT DIIS     0.80E-01   14.9     0.00001255     -6892.2270524693 -2.81E-05
    61 OT DIIS     0.80E-01   15.0     0.00001233     -6892.2270681259 -1.57E-05
    62 OT DIIS     0.80E-01   14.8     0.00001226     -6892.2271053745 -3.72E-05
    63 OT DIIS     0.80E-01   14.5     0.00001235     -6892.2271299082 -2.45E-05
    64 OT DIIS     0.80E-01   14.4     0.00001233     -6892.2271600592 -3.02E-05
    65 OT DIIS     0.80E-01   14.8     0.00001238     -6892.2271975105 -3.75E-05
    66 OT DIIS     0.80E-01   14.8     0.00001262     -6892.2272184371 -2.09E-05
    67 OT DIIS     0.80E-01   14.8     0.00001240     -6892.2272568953 -3.85E-05
    68 OT DIIS     0.80E-01   15.0     0.00001235     -6892.2272842050 -2.73E-05
    69 OT DIIS     0.80E-01   14.8     0.00001219     -6892.2272922027 -8.00E-06
    70 OT DIIS     0.80E-01   14.6     0.00001186     -6892.2273261362 -3.39E-05
    71 OT DIIS     0.80E-01   14.7     0.00001168     -6892.2273417153 -1.56E-05
    72 OT DIIS     0.80E-01   14.8     0.00001130     -6892.2273618629 -2.01E-05
    73 OT DIIS     0.80E-01   14.6     0.00001104     -6892.2273865511 -2.47E-05
    74 OT DIIS     0.80E-01   14.9     0.00001112     -6892.2274089222 -2.24E-05
    75 OT DIIS     0.80E-01   14.9     0.00001101     -6892.2274395083 -3.06E-05
    76 OT DIIS     0.80E-01   15.0     0.00001125     -6892.2274685552 -2.90E-05
    77 OT DIIS     0.80E-01   15.0     0.00001146     -6892.2274828840 -1.43E-05
    78 OT DIIS     0.80E-01   14.8     0.00001144     -6892.2275196425 -3.68E-05
    79 OT DIIS     0.80E-01   14.7     0.00001161     -6892.2275359187 -1.63E-05
    80 OT DIIS     0.80E-01   14.9     0.00001124     -6892.2275522352 -1.63E-05
    81 OT DIIS     0.80E-01   14.9     0.00001077     -6892.2275672893 -1.51E-05
    82 OT DIIS     0.80E-01   15.2     0.00001058     -6892.2275878143 -2.05E-05
    83 OT DIIS     0.80E-01   15.2     0.00001021     -6892.2276075921 -1.98E-05
    84 OT DIIS     0.80E-01   14.9     0.00001020     -6892.2276293234 -2.17E-05
    85 OT DIIS     0.80E-01   14.9     0.00001024     -6892.2276430759 -1.38E-05
    86 OT DIIS     0.80E-01   14.7     0.00001025     -6892.2276742409 -3.12E-05
    87 OT DIIS     0.80E-01   15.0     0.00001062     -6892.2276958525 -2.16E-05
    88 OT DIIS     0.80E-01   14.8     0.00001065     -6892.2277160323 -2.02E-05
    89 OT DIIS     0.80E-01   14.9     0.00001052     -6892.2277289171 -1.29E-05
    90 OT DIIS     0.80E-01   14.8     0.00001052     -6892.2277554251 -2.65E-05
    91 OT DIIS     0.80E-01   14.8     0.00001012     -6892.2277694266 -1.40E-05
    92 OT DIIS     0.80E-01   14.7     0.00000996     -6892.2277858824 -1.65E-05
    93 OT DIIS     0.80E-01   14.6     0.00000977     -6892.2277946111 -8.73E-06
    94 OT DIIS     0.80E-01   15.0     0.00000951     -6892.2278171412 -2.25E-05
    95 OT DIIS     0.80E-01   14.6     0.00000961     -6892.2278353084 -1.82E-05
    96 OT DIIS     0.80E-01   15.1     0.00000961     -6892.2278534920 -1.82E-05
    97 OT DIIS     0.80E-01   14.7     0.00000961     -6892.2278656230 -1.21E-05
    98 OT DIIS     0.80E-01   15.0     0.00000976     -6892.2278958674 -3.02E-05
    99 OT DIIS     0.80E-01   15.0     0.00000970     -6892.2279117109 -1.58E-05
   100 OT DIIS     0.80E-01   15.1     0.00000979     -6892.2279291742 -1.75E-05

  Leaving inner SCF loop after reaching   100 steps.


  Electronic density on regular grids:      -2432.0000000061       -0.0000000061
  Core density on regular grids:             2431.9999999988       -0.0000000012
  Total charge density on r-space grids:       -0.0000000073
  Total charge density g-space grids:          -0.0000000073

  Overlap energy of the core charge distribution:               0.02796246096819
  Self energy of the core charge distribution:             -16017.19408509233290
  Core Hamiltonian energy:                                   4327.05263298292448
  Hartree energy:                                            6128.04114864611984
  Exchange-correlation energy:                              -1328.33239676646531
  Dispersion energy:                                           -1.82319140545317

  Total energy:                                             -6892.22792917423885

  outer SCF iter =    2 RMS gradient =   0.98E-05 energy =      -6892.2279291742

  ----------------------------------- OT ---------------------------------------
  Minimizer      : DIIS                : direct inversion
                                         in the iterative subspace
                                         using   7 DIIS vectors
                                         safer DIIS on
  Preconditioner : FULL_SINGLE_INVERSE : inversion of 
                                         H + eS - 2*(Sc)(c^T*H*c+const)(Sc)^T
  Precond_solver : DEFAULT
  stepsize       :    0.08000000                  energy_gap     :    0.08000000
  eps_taylor     :   0.10000E-15                  max_taylor     :             4
  ----------------------------------- OT ---------------------------------------

  Step     Update method      Time    Convergence         Total energy    Change
  ------------------------------------------------------------------------------
     1 OT DIIS     0.80E-01   40.1     0.00000989     -6892.2279387764 -9.60E-06
     2 OT DIIS     0.80E-01   14.1     0.00002936     -6892.2279467600 -7.98E-06
     3 OT DIIS     0.80E-01   14.3     0.00000901     -6892.2279797636 -3.30E-05
     4 OT DIIS     0.80E-01   14.0     0.00000850     -6892.2279890241 -9.26E-06
     5 OT DIIS     0.80E-01   14.3     0.00001060     -6892.2280925233 -1.03E-04
     6 OT DIIS     0.80E-01   14.4     0.00001672     -6892.2288257108 -7.33E-04
     7 OT DIIS     0.80E-01   14.5     0.00001377     -6892.2289310973 -1.05E-04
     8 OT SD       0.80E-01   14.5     0.00001808     -6892.2289730413 -4.19E-05
     9 OT DIIS     0.80E-01   14.2     0.00003424     -6892.2289536995  1.93E-05
    10 OT DIIS     0.80E-01   14.3     0.00000892     -6892.2289430323  1.07E-05
    11 OT DIIS     0.80E-01   14.6     0.00000885     -6892.2290531155 -1.10E-04
    12 OT DIIS     0.80E-01   14.2     0.00000721     -6892.2290785168 -2.54E-05
    13 OT DIIS     0.80E-01   14.5     0.00000729     -6892.2290837869 -5.27E-06
    14 OT DIIS     0.80E-01   14.4     0.00000632     -6892.2291231545 -3.94E-05
    15 OT DIIS     0.80E-01   14.2     0.00000634     -6892.2291352559 -1.21E-05
    16 OT DIIS     0.80E-01   14.4     0.00000714     -6892.2291709682 -3.57E-05
    17 OT DIIS     0.80E-01   14.2     0.00000610     -6892.2291908386 -1.99E-05
    18 OT DIIS     0.80E-01   14.2     0.00000745     -6892.2292354396 -4.46E-05
    19 OT SD       0.80E-01   14.1     0.00000663     -6892.2292801958 -4.48E-05
    20 OT DIIS     0.80E-01   14.2     0.00002007     -6892.2292832955 -3.10E-06
    21 OT DIIS     0.80E-01   14.6     0.00000699     -6892.2293987341 -1.15E-04
    22 OT DIIS     0.80E-01   14.3     0.00000674     -6892.2294139718 -1.52E-05
    23 OT DIIS     0.80E-01   14.4     0.00000659     -6892.2294871782 -7.32E-05
    24 OT SD       0.80E-01   14.0     0.00000705     -6892.2295798598 -9.27E-05
    25 OT DIIS     0.80E-01   14.2     0.00002520     -6892.2295725437  7.32E-06
    26 OT DIIS     0.80E-01   14.3     0.00000558     -6892.2296260242 -5.35E-05
    27 OT DIIS     0.80E-01   14.2     0.00000564     -6892.2296797105 -5.37E-05
    28 OT SD       0.80E-01   14.5     0.00000650     -6892.2298128720 -1.33E-04
    29 OT DIIS     0.80E-01   14.3     0.00001810     -6892.2298146464 -1.77E-06
    30 OT DIIS     0.80E-01   14.3     0.00000621     -6892.2298741369 -5.95E-05
    31 OT SD       0.80E-01   14.4     0.00000646     -6892.2300015289 -1.27E-04
    32 OT SD       0.80E-01   14.2     0.00001688     -6892.2300042799 -2.75E-06
    33 OT DIIS     0.80E-01   14.2     0.00008877     -6892.2297408289  2.63E-04
    34 OT DIIS     0.80E-01   14.3     0.00000552     -6892.2300300999 -2.89E-04
    35 OT SD       0.80E-01   14.1     0.00000553     -6892.2300345041 -4.40E-06
    36 OT DIIS     0.80E-01   14.3     0.00001398     -6892.2300398798 -5.38E-06
    37 OT DIIS     0.80E-01   14.2     0.00000496     -6892.2300430912 -3.21E-06
    38 OT DIIS     0.80E-01   14.3     0.00000506     -6892.2300562758 -1.32E-05
    39 OT DIIS     0.80E-01   14.3     0.00000491     -6892.2300577332 -1.46E-06
    40 OT DIIS     0.80E-01   14.8     0.00000497     -6892.2300728287 -1.51E-05
    41 OT DIIS     0.80E-01   15.1     0.00000506     -6892.2301205635 -4.77E-05
    42 OT SD       0.80E-01   14.8     0.00000486     -6892.2301640635 -4.35E-05
    43 OT DIIS     0.80E-01   15.0     0.00000641     -6892.2301745094 -1.04E-05
    44 OT DIIS     0.80E-01   14.7     0.00000488     -6892.2302284285 -5.39E-05
    45 OT DIIS     0.80E-01   14.9     0.00000485     -6892.2302644430 -3.60E-05
    46 OT DIIS     0.80E-01   15.1     0.00000485     -6892.2303134985 -4.91E-05
    47 OT SD       0.80E-01   15.2     0.00000486     -6892.2303652840 -5.18E-05
    48 OT SD       0.80E-01   15.0     0.00000650     -6892.2303751972 -9.91E-06
    49 OT DIIS     0.80E-01   14.7     0.00002310     -6892.2303668899  8.31E-06
    50 OT DIIS     0.80E-01   15.1     0.00000475     -6892.2304148015 -4.79E-05
    51 OT DIIS     0.80E-01   14.9     0.00000496     -6892.2304894885 -7.47E-05
    52 OT DIIS     0.80E-01   15.0     0.00000490     -6892.2304894545  3.40E-08
    53 OT DIIS     0.80E-01   14.7     0.00000494     -6892.2305003261 -1.09E-05
    54 OT SD       0.80E-01   15.0     0.00000486     -6892.2305903889 -9.01E-05
    55 OT SD       0.80E-01   14.7     0.00000681     -6892.2305997001 -9.31E-06
    56 OT DIIS     0.80E-01   14.7     0.00002393     -6892.2305890138  1.07E-05
    57 OT DIIS     0.80E-01   14.7     0.00000467     -6892.2306181106 -2.91E-05
    58 OT SD       0.80E-01   15.2     0.00000474     -6892.2306589808 -4.09E-05
    59 OT DIIS     0.80E-01   14.9     0.00000701     -6892.2306681954 -9.21E-06
    60 OT DIIS     0.80E-01   14.7     0.00000469     -6892.2307062567 -3.81E-05
    61 OT SD       0.80E-01   14.9     0.00000487     -6892.2307776038 -7.13E-05
    62 OT SD       0.80E-01   14.8     0.00000853     -6892.2307857615 -8.16E-06
    63 OT DIIS     0.80E-01   14.8     0.00003862     -6892.2307429387  4.28E-05
    64 OT DIIS     0.80E-01   14.7     0.00000478     -6892.2308528573 -1.10E-04
    65 OT SD       0.80E-01   14.5     0.00000476     -6892.2308668903 -1.40E-05
    66 OT DIIS     0.80E-01   14.5     0.00000734     -6892.2308755356 -8.65E-06
    67 OT DIIS     0.80E-01   15.2     0.00000493     -6892.2309792788 -1.04E-04
    68 OT SD       0.80E-01   14.8     0.00000639     -6892.2310858051 -1.07E-04
    69 OT SD       0.80E-01   14.9     0.00001432     -6892.2310875579 -1.75E-06
    70 OT DIIS     0.80E-01   14.9     0.00006119     -6892.2309538342  1.34E-04
    71 OT DIIS     0.80E-01   14.8     0.00000474     -6892.2310132358 -5.94E-05
    72 OT SD       0.80E-01   14.7     0.00000479     -6892.2310820664 -6.88E-05
    73 OT DIIS     0.80E-01   14.8     0.00001055     -6892.2310883017 -6.24E-06
    74 OT DIIS     0.80E-01   14.8     0.00000452     -6892.2310861583  2.14E-06
    75 OT DIIS     0.80E-01   15.1     0.00000450     -6892.2310985602 -1.24E-05
    76 OT DIIS     0.80E-01   14.8     0.00000444     -6892.2311172721 -1.87E-05
    77 OT DIIS     0.80E-01   15.0     0.00000457     -6892.2311525759 -3.53E-05
    78 OT DIIS     0.80E-01   14.7     0.00000548     -6892.2312848328 -1.32E-04
    79 OT SD       0.80E-01   14.9     0.00000781     -6892.2314139095 -1.29E-04
    80 OT SD       0.80E-01   15.0     0.00001490     -6892.2314129876  9.22E-07
    81 OT DIIS     0.80E-01   14.7     0.00004798     -6892.2313207919  9.22E-05
    82 OT DIIS     0.80E-01   14.7     0.00000521     -6892.2313430071 -2.22E-05
    83 OT SD       0.80E-01   15.0     0.00001000     -6892.2316015153 -2.59E-04
    84 OT DIIS     0.80E-01   14.7     0.00002180     -6892.2315893250  1.22E-05
    85 OT DIIS     0.80E-01   14.8     0.00000737     -6892.2315683185  2.10E-05
    86 OT SD       0.80E-01   14.8     0.00000543     -6892.2316386986 -7.04E-05
    87 OT DIIS     0.80E-01   14.8     0.00002126     -6892.2316305432  8.16E-06
    88 OT DIIS     0.80E-01   15.1     0.00000449     -6892.2316562580 -2.57E-05
    89 OT SD       0.80E-01   14.8     0.00000478     -6892.2317205165 -6.43E-05
    90 OT SD       0.80E-01   14.4     0.00000909     -6892.2317245031 -3.99E-06
    91 OT DIIS     0.80E-01   14.7     0.00003814     -6892.2316772426  4.73E-05
    92 OT DIIS     0.80E-01   14.7     0.00000395     -6892.2317339153 -5.67E-05
    93 OT SD       0.80E-01   14.7     0.00000456     -6892.2317910284 -5.71E-05
    94 OT DIIS     0.80E-01   14.7     0.00001421     -6892.2317904797  5.49E-07
    95 OT DIIS     0.80E-01   14.9     0.00000440     -6892.2318527500 -6.23E-05
    96 OT SD       0.80E-01   14.8     0.00001007     -6892.2320080164 -1.55E-04
    97 OT SD       0.80E-01   14.7     0.00002495     -6892.2319858482  2.22E-05
    98 OT DIIS     0.80E-01   14.5     0.00009520     -6892.2316088179  3.77E-04
    99 OT DIIS     0.80E-01   15.0     0.00000431     -6892.2319061268 -2.97E-04
   100 OT SD       0.80E-01   15.2     0.00000407     -6892.2319826161 -7.65E-05

  Leaving inner SCF loop after reaching   100 steps.


  Electronic density on regular grids:      -2432.0000000061       -0.0000000061
  Core density on regular grids:             2431.9999999988       -0.0000000012
  Total charge density on r-space grids:       -0.0000000073
  Total charge density g-space grids:          -0.0000000073

  Overlap energy of the core charge distribution:               0.02796246096819
  Self energy of the core charge distribution:             -16017.19408509233290
  Core Hamiltonian energy:                                   4327.04057872978228
  Hartree energy:                                            6128.04862788105220
  Exchange-correlation energy:                              -1328.33187519011744
  Dispersion energy:                                           -1.82319140545317

  Total energy:                                             -6892.23198261610105

  outer SCF iter =    3 RMS gradient =   0.41E-05 energy =      -6892.2319826161

  ----------------------------------- OT ---------------------------------------
  Minimizer      : DIIS                : direct inversion
                                         in the iterative subspace
                                         using   7 DIIS vectors
                                         safer DIIS on
  Preconditioner : FULL_SINGLE_INVERSE : inversion of 
                                         H + eS - 2*(Sc)(c^T*H*c+const)(Sc)^T
  Precond_solver : DEFAULT
  stepsize       :    0.08000000                  energy_gap     :    0.08000000
  eps_taylor     :   0.10000E-15                  max_taylor     :             4
  ----------------------------------- OT ---------------------------------------

  Step     Update method      Time    Convergence         Total energy    Change
  ------------------------------------------------------------------------------
     1 OT DIIS     0.80E-01   39.6     0.00001392     -6892.2319813096  1.31E-06
     2 OT DIIS     0.80E-01   14.3     0.00008181     -6892.2317655659  2.16E-04
     3 OT DIIS     0.80E-01   14.1     0.00000675     -6892.2319921370 -2.27E-04
     4 OT DIIS     0.80E-01   14.1     0.00000360     -6892.2319948216 -2.68E-06
     5 OT DIIS     0.80E-01   14.1     0.00000330     -6892.2319963256 -1.50E-06
     6 OT DIIS     0.80E-01   14.1     0.00000337     -6892.2320004127 -4.09E-06
     7 OT DIIS     0.80E-01   14.4     0.00000364     -6892.2320228919 -2.25E-05
     8 OT SD       0.80E-01   14.1     0.00000341     -6892.2320591114 -3.62E-05
     9 OT DIIS     0.80E-01   14.2     0.00000878     -6892.2320612571 -2.15E-06
    10 OT DIIS     0.80E-01   14.2     0.00000319     -6892.2320820077 -2.08E-05
    11 OT DIIS     0.80E-01   14.1     0.00000316     -6892.2320993622 -1.74E-05
    12 OT DIIS     0.80E-01   14.1     0.00000322     -6892.2321089683 -9.61E-06
    13 OT DIIS     0.80E-01   14.2     0.00000324     -6892.2321271694 -1.82E-05
    14 OT DIIS     0.80E-01   14.6     0.00000309     -6892.2321672082 -4.00E-05
    15 OT SD       0.80E-01   14.4     0.00000299     -6892.2321801171 -1.29E-05
    16 OT DIIS     0.80E-01   14.2     0.00000499     -6892.2321832545 -3.14E-06
    17 OT DIIS     0.80E-01   14.3     0.00000310     -6892.2322171826 -3.39E-05
    18 OT DIIS     0.80E-01   14.1     0.00000327     -6892.2322495748 -3.24E-05
    19 OT DIIS     0.80E-01   14.3     0.00000304     -6892.2322758788 -2.63E-05
    20 OT DIIS     0.80E-01   14.3     0.00000318     -6892.2322908309 -1.50E-05
    21 OT SD       0.80E-01   14.3     0.00000361     -6892.2322966563 -5.83E-06
    22 OT DIIS     0.80E-01   14.4     0.00001557     -6892.2322919404  4.72E-06
    23 OT DIIS     0.80E-01   13.9     0.00000279     -6892.2323248788 -3.29E-05
    24 OT SD       0.80E-01   14.1     0.00000347     -6892.2323621424 -3.73E-05
    25 OT DIIS     0.80E-01   14.2     0.00001008     -6892.2323611188  1.02E-06
    26 OT SD       0.80E-01   14.5     0.00000324     -6892.2323644587 -3.34E-06
    27 OT DIIS     0.80E-01   14.3     0.00001190     -6892.2323621368  2.32E-06
    28 OT SD       0.80E-01   14.3     0.00000340     -6892.2323977956 -3.57E-05
    29 OT DIIS     0.80E-01   14.0     0.00001196     -6892.2323949752  2.82E-06
    30 OT DIIS     0.80E-01   14.2     0.00000279     -6892.2324098953 -1.49E-05
    31 OT SD       0.80E-01   14.3     0.00000314     -6892.2324544951 -4.46E-05
    32 OT SD       0.80E-01   14.4     0.00000970     -6892.2324529996  1.50E-06
    33 OT DIIS     0.80E-01   14.2     0.00004669     -6892.2323719059  8.11E-05
    34 OT DIIS     0.80E-01   14.3     0.00000269     -6892.2324868117 -1.15E-04
    35 OT SD       0.80E-01   14.2     0.00000260     -6892.2324956333 -8.82E-06
    36 OT DIIS     0.80E-01   14.6     0.00000746     -6892.2324954413  1.92E-07
    37 OT DIIS     0.80E-01   14.0     0.00000239     -6892.2325239171 -2.85E-05
    38 OT SD       0.80E-01   14.3     0.00000286     -6892.2325389452 -1.50E-05
    39 OT DIIS     0.80E-01   14.1     0.00000999     -6892.2325370626  1.88E-06
    40 OT DIIS     0.80E-01   14.4     0.00000224     -6892.2325348263  2.24E-06
    41 OT DIIS     0.80E-01   14.4     0.00000240     -6892.2325535561 -1.87E-05
    42 OT SD       0.80E-01   14.5     0.00000268     -6892.2325586985 -5.14E-06
    43 OT DIIS     0.80E-01   14.3     0.00001149     -6892.2325557251  2.97E-06
    44 OT DIIS     0.80E-01   14.0     0.00000203     -6892.2325585379 -2.81E-06
    45 OT SD       0.80E-01   14.3     0.00000221     -6892.2325765552 -1.80E-05
    46 OT DIIS     0.80E-01   14.4     0.00000766     -6892.2325757809  7.74E-07
    47 OT DIIS     0.80E-01   14.3     0.00000204     -6892.2325988557 -2.31E-05
    48 OT SD       0.80E-01   14.4     0.00000201     -6892.2326018637 -3.01E-06
    49 OT DIIS     0.80E-01   14.1     0.00000705     -6892.2326013304  5.33E-07
    50 OT DIIS     0.80E-01   14.3     0.00000180     -6892.2326080695 -6.74E-06
    51 OT DIIS     0.80E-01   14.3     0.00000184     -6892.2326205477 -1.25E-05
    52 OT SD       0.80E-01   14.5     0.00000172     -6892.2326256311 -5.08E-06
    53 OT SD       0.80E-01   14.5     0.00000458     -6892.2326260329 -4.02E-07
    54 OT DIIS     0.80E-01   14.2     0.00002547     -6892.2326052896  2.07E-05
    55 OT SD       0.80E-01   14.5     0.00000152     -6892.2326347414 -2.95E-05
    56 OT DIIS     0.80E-01   14.5     0.00000263     -6892.2326355564 -8.15E-07
    57 OT DIIS     0.80E-01   14.6     0.00000147     -6892.2326456204 -1.01E-05
    58 OT DIIS     0.80E-01   15.0     0.00000173     -6892.2326606170 -1.50E-05
    59 OT SD       0.80E-01   15.0     0.00000179     -6892.2326668197 -6.20E-06
    60 OT SD       0.80E-01   14.7     0.00000584     -6892.2326665790  2.41E-07
    61 OT DIIS     0.80E-01   14.8     0.00003280     -6892.2326305350  3.60E-05
    62 OT DIIS     0.80E-01   14.8     0.00000141     -6892.2326734412 -4.29E-05
    63 OT DIIS     0.80E-01   14.9     0.00000149     -6892.2326807365 -7.30E-06
    64 OT DIIS     0.80E-01   15.0     0.00000144     -6892.2326807276  8.95E-09
    65 OT DIIS     0.80E-01   14.9     0.00000144     -6892.2326849755 -4.25E-06
    66 OT SD       0.80E-01   14.7     0.00000144     -6892.2326944615 -9.49E-06
    67 OT DIIS     0.80E-01   15.2     0.00000358     -6892.2326948145 -3.53E-07
    68 OT DIIS     0.80E-01   14.7     0.00000137     -6892.2326972095 -2.40E-06
    69 OT DIIS     0.80E-01   14.8     0.00000155     -6892.2327108686 -1.37E-05
    70 OT SD       0.80E-01   15.0     0.00000154     -6892.2327165676 -5.70E-06
    71 OT SD       0.80E-01   14.9     0.00000415     -6892.2327167288 -1.61E-07
    72 OT DIIS     0.80E-01   15.1     0.00002334     -6892.2326991269  1.76E-05
    73 OT DIIS     0.80E-01   14.6     0.00000130     -6892.2327187415 -1.96E-05
    74 OT DIIS     0.80E-01   14.9     0.00000120     -6892.2327198682 -1.13E-06
    75 OT SD       0.80E-01   15.2     0.00000133     -6892.2327227920 -2.92E-06
    76 OT DIIS     0.80E-01   14.8     0.00000411     -6892.2327228822 -9.02E-08
    77 OT SD       0.80E-01   15.0     0.00000131     -6892.2327300645 -7.18E-06
    78 OT DIIS     0.80E-01   15.1     0.00000370     -6892.2327301727 -1.08E-07
    79 OT DIIS     0.80E-01   15.0     0.00000134     -6892.2327346990 -4.53E-06
    80 OT SD       0.80E-01   14.9     0.00000162     -6892.2327503278 -1.56E-05
    81 OT DIIS     0.80E-01   15.0     0.00000473     -6892.2327501268  2.01E-07
    82 OT SD       0.80E-01   14.8     0.00000138     -6892.2327496472  4.80E-07
    83 OT SD       0.80E-01   14.8     0.00000361     -6892.2327497495 -1.02E-07
    84 OT DIIS     0.80E-01   14.9     0.00001972     -6892.2327369747  1.28E-05
    85 OT DIIS     0.80E-01   15.2     0.00000109     -6892.2327489174 -1.19E-05
    86 OT DIIS     0.80E-01   15.0     0.00000106     -6892.2327494041 -4.87E-07
    87 OT DIIS     0.80E-01   15.2     0.00000100     -6892.2327498173 -4.13E-07
    88 OT DIIS     0.80E-01   15.0     0.00000102     -6892.2327500261 -2.09E-07
    89 OT DIIS     0.80E-01   14.7     0.00000100     -6892.2327503316 -3.05E-07

  *** SCF run converged in    89 steps ***


  Electronic density on regular grids:      -2432.0000000061       -0.0000000061
  Core density on regular grids:             2431.9999999988       -0.0000000012
  Total charge density on r-space grids:       -0.0000000072
  Total charge density g-space grids:          -0.0000000072

  Overlap energy of the core charge distribution:               0.02796246096819
  Self energy of the core charge distribution:             -16017.19408509233290
  Core Hamiltonian energy:                                   4327.03533928248635
  Hartree energy:                                            6128.05059112159779
  Exchange-correlation energy:                              -1328.32936669882247
  Dispersion energy:                                           -1.82319140545317

  Total energy:                                             -6892.23275033155642

  outer SCF iter =    4 RMS gradient =   0.10E-05 energy =      -6892.2327503316
  outer SCF loop converged in   4 iterations or  389 steps


 ENERGY| Total FORCE_EVAL ( QS ) energy [hartree]          -6892.232751034443027

 Number of electrons:                                                       2432
 Number of occupied orbitals:                                               1216
 Number of molecular orbitals:                                              1216

 Number of orbital functions:                                               4983
 Number of independent orbital functions:                                   4983

 Extrapolation method: ASPC


 SCF WAVEFUNCTION OPTIMIZATION

  ----------------------------------- OT ---------------------------------------
  Minimizer      : DIIS                : direct inversion
                                         in the iterative subspace
                                         using   7 DIIS vectors
                                         safer DIIS on
  Preconditioner : FULL_SINGLE_INVERSE : inversion of 
                                         H + eS - 2*(Sc)(c^T*H*c+const)(Sc)^T
  Precond_solver : DEFAULT
  stepsize       :    0.08000000                  energy_gap     :    0.08000000
  eps_taylor     :   0.10000E-15                  max_taylor     :             4
  ----------------------------------- OT ---------------------------------------

  Step     Update method      Time    Convergence         Total energy    Change
  ------------------------------------------------------------------------------
     1 OT DIIS     0.80E-01   20.7     0.00557698     -6886.9023326671 -6.89E+03
     2 OT DIIS     0.80E-01   14.9     0.00420793     -6899.1686003883 -1.23E+01
     3 OT DIIS     0.80E-01   14.4     0.00365159     -6905.2883920422 -6.12E+00
     4 OT DIIS     0.80E-01   14.8     0.00206366     -6908.5547088033 -3.27E+00
     5 OT DIIS     0.80E-01   15.0     0.00146094     -6909.3617913015 -8.07E-01
     6 OT DIIS     0.80E-01   15.3     0.00156761     -6909.5876660807 -2.26E-01
     7 OT DIIS     0.80E-01   14.9     0.00069668     -6909.8680343633 -2.80E-01
     8 OT DIIS     0.80E-01   15.1     0.00052300     -6909.9900164319 -1.22E-01
     9 OT DIIS     0.80E-01   14.8     0.00044287     -6910.0544450097 -6.44E-02
    10 OT DIIS     0.80E-01   14.9     0.00031092     -6910.1035236416 -4.91E-02
    11 OT DIIS     0.80E-01   15.2     0.00022114     -6910.1310659367 -2.75E-02
    12 OT DIIS     0.80E-01   14.6     0.00020545     -6910.1581953168 -2.71E-02
    13 OT DIIS     0.80E-01   14.6     0.00017642     -6910.1722603677 -1.41E-02
    14 OT DIIS     0.80E-01   14.7     0.00016336     -6910.1924033856 -2.01E-02
    15 OT DIIS     0.80E-01   14.8     0.00014837     -6910.2067562460 -1.44E-02
    16 OT DIIS     0.80E-01   14.7     0.00012627     -6910.2198810372 -1.31E-02
    17 OT DIIS     0.80E-01   14.7     0.00011521     -6910.2297668449 -9.89E-03
    18 OT DIIS     0.80E-01   14.8     0.00010525     -6910.2377133870 -7.95E-03
    19 OT DIIS     0.80E-01   15.0     0.00009215     -6910.2445867655 -6.87E-03
    20 OT DIIS     0.80E-01   14.9     0.00008465     -6910.2527975743 -8.21E-03
    21 OT DIIS     0.80E-01   14.6     0.00008207     -6910.2569189215 -4.12E-03
    22 OT DIIS     0.80E-01   15.0     0.00007478     -6910.2629606837 -6.04E-03
    23 OT DIIS     0.80E-01   14.9     0.00006972     -6910.2670728283 -4.11E-03
    24 OT DIIS     0.80E-01   15.0     0.00006540     -6910.2707096406 -3.64E-03
    25 OT DIIS     0.80E-01   14.7     0.00006251     -6910.2748799150 -4.17E-03
    26 OT DIIS     0.80E-01   14.7     0.00006042     -6910.2784858929 -3.61E-03
    27 OT DIIS     0.80E-01   14.5     0.00005556     -6910.2820762845 -3.59E-03
    28 OT DIIS     0.80E-01   14.6     0.00005126     -6910.2854979553 -3.42E-03
    29 OT DIIS     0.80E-01   14.6     0.00004936     -6910.2872008308 -1.70E-03
    30 OT DIIS     0.80E-01   14.7     0.00004592     -6910.2904501234 -3.25E-03
    31 OT DIIS     0.80E-01   14.8     0.00004710     -6910.2930279067 -2.58E-03
    32 OT DIIS     0.80E-01   15.1     0.00004354     -6910.2951727119 -2.14E-03
    33 OT DIIS     0.80E-01   14.9     0.00003994     -6910.2969211788 -1.75E-03
    34 OT DIIS     0.80E-01   14.9     0.00003706     -6910.2979307902 -1.01E-03
    35 OT DIIS     0.80E-01   14.6     0.00003521     -6910.2993478930 -1.42E-03
    36 OT DIIS     0.80E-01   14.9     0.00003478     -6910.3012267794 -1.88E-03
    37 OT DIIS     0.80E-01   14.8     0.00003399     -6910.3026370450 -1.41E-03
    38 OT DIIS     0.80E-01   15.1     0.00003332     -6910.3040180831 -1.38E-03
    39 OT DIIS     0.80E-01   14.8     0.00003023     -6910.3046318380 -6.14E-04
    40 OT DIIS     0.80E-01   15.0     0.00002856     -6910.3048788954 -2.47E-04
    41 OT DIIS     0.80E-01   15.0     0.00002630     -6910.3058400153 -9.61E-04
    42 OT DIIS     0.80E-01   14.8     0.00002564     -6910.3064835952 -6.44E-04
    43 OT DIIS     0.80E-01   14.6     0.00002337     -6910.3073045983 -8.21E-04
    44 OT DIIS     0.80E-01   14.9     0.00002451     -6910.3084949223 -1.19E-03
    45 OT DIIS     0.80E-01   14.7     0.00002048     -6910.3094283579 -9.33E-04
    46 OT DIIS     0.80E-01   15.0     0.00001921     -6910.3097023975 -2.74E-04
    47 OT SD       0.80E-01   14.9     0.00002208     -6910.3104330147 -7.31E-04
    48 OT DIIS     0.80E-01   14.8     0.00002889     -6910.3105213996 -8.84E-05
    49 OT DIIS     0.80E-01   14.7     0.00001517     -6910.3107191326 -1.98E-04
    50 OT DIIS     0.80E-01   15.0     0.00001578     -6910.3112099489 -4.91E-04
    51 OT DIIS     0.80E-01   14.9     0.00001327     -6910.3116078561 -3.98E-04
    52 OT DIIS     0.80E-01   14.7     0.00001193     -6910.3117375309 -1.30E-04
    53 OT SD       0.80E-01   14.7     0.00001112     -6910.3120113138 -2.74E-04
    54 OT DIIS     0.80E-01   14.9     0.00001489     -6910.3120539188 -4.26E-05
    55 OT DIIS     0.80E-01   14.8     0.00001005     -6910.3122983405 -2.44E-04
    56 OT DIIS     0.80E-01   14.6     0.00000914     -6910.3124266297 -1.28E-04
    57 OT DIIS     0.80E-01   15.0     0.00000907     -6910.3125141444 -8.75E-05
    58 OT DIIS     0.80E-01   14.7     0.00000841     -6910.3126100659 -9.59E-05
    59 OT DIIS     0.80E-01   14.8     0.00000843     -6910.3126640285 -5.40E-05
    60 OT DIIS     0.80E-01   14.9     0.00000866     -6910.3127166359 -5.26E-05
    61 OT DIIS     0.80E-01   14.7     0.00000775     -6910.3128394625 -1.23E-04
    62 OT DIIS     0.80E-01   14.4     0.00000792     -6910.3129381897 -9.87E-05
    63 OT DIIS     0.80E-01   14.8     0.00000749     -6910.3129937760 -5.56E-05
    64 OT DIIS     0.80E-01   14.6     0.00000731     -6910.3130906427 -9.69E-05
    65 OT DIIS     0.80E-01   14.9     0.00000732     -6910.3131912340 -1.01E-04
    66 OT DIIS     0.80E-01   14.9     0.00000714     -6910.3132657123 -7.45E-05
    67 OT DIIS     0.80E-01   14.9     0.00000715     -6910.3133702277 -1.05E-04
    68 OT DIIS     0.80E-01   15.0     0.00000723     -6910.3134557223 -8.55E-05
    69 OT DIIS     0.80E-01   14.6     0.00000670     -6910.3135167557 -6.10E-05
    70 OT DIIS     0.80E-01   14.9     0.00000669     -6910.3136416690 -1.25E-04
    71 OT DIIS     0.80E-01   14.8     0.00000655     -6910.3136756539 -3.40E-05
    72 OT DIIS     0.80E-01   14.9     0.00000642     -6910.3137992435 -1.24E-04
    73 OT DIIS     0.80E-01   14.9     0.00000640     -6910.3139278889 -1.29E-04
    74 OT DIIS     0.80E-01   14.8     0.00000623     -6910.3139892741 -6.14E-05
    75 OT DIIS     0.80E-01   15.0     0.00000619     -6910.3140844705 -9.52E-05
    76 OT DIIS     0.80E-01   15.0     0.00000623     -6910.3141675456 -8.31E-05
    77 OT DIIS     0.80E-01   14.8     0.00000603     -6910.3142170407 -4.95E-05
    78 OT DIIS     0.80E-01   15.3     0.00000604     -6910.3143795609 -1.63E-04
    79 OT DIIS     0.80E-01   14.9     0.00000594     -6910.3144152296 -3.57E-05
    80 OT DIIS     0.80E-01   14.8     0.00000570     -6910.3145090509 -9.38E-05
    81 OT DIIS     0.80E-01   14.8     0.00000559     -6910.3145616014 -5.26E-05
    82 OT DIIS     0.80E-01   14.8     0.00000562     -6910.3146248921 -6.33E-05
    83 OT DIIS     0.80E-01   14.8     0.00000563     -6910.3147600527 -1.35E-04
    84 OT DIIS     0.80E-01   14.6     0.00000568     -6910.3148533179 -9.33E-05
    85 OT DIIS     0.80E-01   14.8     0.00000545     -6910.3149074543 -5.41E-05
    86 OT DIIS     0.80E-01   14.8     0.00000531     -6910.3149848752 -7.74E-05
    87 OT DIIS     0.80E-01   14.5     0.00000525     -6910.3149936161 -8.74E-06
    88 OT DIIS     0.80E-01   14.6     0.00000518     -6910.3150700090 -7.64E-05
    89 OT DIIS     0.80E-01   15.0     0.00000509     -6910.3151205582 -5.05E-05
    90 OT DIIS     0.80E-01   14.6     0.00000513     -6910.3151668833 -4.63E-05
    91 OT DIIS     0.80E-01   14.7     0.00000503     -6910.3152691302 -1.02E-04
    92 OT DIIS     0.80E-01   15.3     0.00000489     -6910.3153978151 -1.29E-04
    93 OT DIIS     0.80E-01   14.8     0.00000494     -6910.3154313920 -3.36E-05
    94 OT DIIS     0.80E-01   15.0     0.00000493     -6910.3154730308 -4.16E-05
    95 OT DIIS     0.80E-01   14.8     0.00000480     -6910.3154878564 -1.48E-05
    96 OT DIIS     0.80E-01   15.2     0.00000479     -6910.3155290338 -4.12E-05
    97 OT DIIS     0.80E-01   15.0     0.00000474     -6910.3155738611 -4.48E-05
    98 OT DIIS     0.80E-01   14.7     0.00000472     -6910.3156367753 -6.29E-05
    99 OT DIIS     0.80E-01   15.2     0.00000468     -6910.3156705491 -3.38E-05
   100 OT DIIS     0.80E-01   14.6     0.00000466     -6910.3157023986 -3.18E-05

  Leaving inner SCF loop after reaching   100 steps.


  Electronic density on regular grids:      -2431.9999999868        0.0000000132
  Core density on regular grids:             2431.9999999988       -0.0000000012
  Total charge density on r-space grids:        0.0000000120
  Total charge density g-space grids:           0.0000000120

  Overlap energy of the core charge distribution:               0.01785506912045
  Self energy of the core charge distribution:             -16017.19408509233290
  Core Hamiltonian energy:                                   4288.58634262349551
  Hartree energy:                                            6144.65274648729701
  Exchange-correlation energy:                              -1324.55686896474617
  Dispersion energy:                                           -1.82169252143861

  Total energy:                                             -6910.31570239860503

  outer SCF iter =    1 RMS gradient =   0.47E-05 energy =      -6910.3157023986

  ----------------------------------- OT ---------------------------------------
  Minimizer      : DIIS                : direct inversion
                                         in the iterative subspace
                                         using   7 DIIS vectors
                                         safer DIIS on
  Preconditioner : FULL_SINGLE_INVERSE : inversion of 
                                         H + eS - 2*(Sc)(c^T*H*c+const)(Sc)^T
  Precond_solver : DEFAULT
  stepsize       :    0.08000000                  energy_gap     :    0.08000000
  eps_taylor     :   0.10000E-15                  max_taylor     :             4
  ----------------------------------- OT ---------------------------------------

  Step     Update method      Time    Convergence         Total energy    Change
  ------------------------------------------------------------------------------
     1 OT DIIS     0.80E-01   40.1     0.00002168     -6910.3157216515 -1.93E-05
     2 OT DIIS     0.80E-01   14.1     0.00001961     -6910.3159285835 -2.07E-04
     3 OT DIIS     0.80E-01   14.4     0.00002129     -6910.3160974372 -1.69E-04
     4 OT DIIS     0.80E-01   14.2     0.00002050     -6910.3162305861 -1.33E-04
     5 OT DIIS     0.80E-01   14.3     0.00001931     -6910.3163710768 -1.40E-04
     6 OT DIIS     0.80E-01   14.3     0.00001825     -6910.3165826130 -2.12E-04
     7 OT DIIS     0.80E-01   14.3     0.00001810     -6910.3167148203 -1.32E-04
     8 OT DIIS     0.80E-01   14.2     0.00001785     -6910.3168134674 -9.86E-05
     9 OT DIIS     0.80E-01   14.0     0.00001776     -6910.3168734959 -6.00E-05
    10 OT SD       0.80E-01   14.4     0.00001776     -6910.3169276209 -5.41E-05
    11 OT SD       0.80E-01   14.3     0.00001786     -6910.3170804206 -1.53E-04
    12 OT SD       0.80E-01   14.8     0.00001935     -6910.3172316535 -1.51E-04
    13 OT SD       0.80E-01   14.3     0.00004191     -6910.3173308295 -9.92E-05
    14 OT DIIS     0.80E-01   14.5     0.00019734     -6910.3160362820  1.29E-03
    15 OT SD       0.80E-01   14.3     0.00001781     -6910.3168333503 -7.97E-04
    16 OT SD       0.80E-01   14.3     0.00001935     -6910.3169827998 -1.49E-04
    17 OT SD       0.80E-01   14.4     0.00003856     -6910.3170872293 -1.04E-04
    18 OT DIIS     0.80E-01   14.5     0.00016417     -6910.3161920072  8.95E-04
    19 OT DIIS     0.80E-01   14.3     0.00001770     -6910.3164085906 -2.17E-04
    20 OT SD       0.80E-01   14.2     0.00001793     -6910.3167533764 -3.45E-04
    21 OT SD       0.80E-01   14.5     0.00002145     -6910.3168969375 -1.44E-04
    22 OT SD       0.80E-01   14.4     0.00005904     -6910.3169244707 -2.75E-05
    23 OT DIIS     0.80E-01   14.7     0.00028952     -6910.3139549810  2.97E-03
    24 OT SD       0.80E-01   14.4     0.00001764     -6910.3160208815 -2.07E-03
    25 OT SD       0.80E-01   14.2     0.00002202     -6910.3161547548 -1.34E-04
    26 OT SD       0.80E-01   14.3     0.00006549     -6910.3161374358  1.73E-05
    27 OT DIIS     0.80E-01   14.2     0.00031116     -6910.3125396421  3.60E-03
    28 OT DIIS     0.80E-01   14.2     0.00003194     -6910.3143666903 -1.83E-03
    29 OT DIIS     0.80E-01   14.3     0.00001845     -6910.3161949689 -1.83E-03
    30 OT SD       0.80E-01   14.2     0.00001852     -6910.3163819047 -1.87E-04
    31 OT SD       0.80E-01   14.1     0.00002139     -6910.3165232992 -1.41E-04
    32 OT DIIS     0.80E-01   14.4     0.00004039     -6910.3166086734 -8.54E-05
    33 OT DIIS     0.80E-01   13.8     0.00001845     -6910.3167511866 -1.43E-04
    34 OT DIIS     0.80E-01   14.3     0.00001880     -6910.3168924635 -1.41E-04
    35 OT SD       0.80E-01   14.7     0.00001924     -6910.3171848515 -2.92E-04
    36 OT SD       0.80E-01   14.5     0.00002356     -6910.3173311955 -1.46E-04
    37 OT SD       0.80E-01   14.9     0.00006713     -6910.3173212831  9.91E-06
    38 OT DIIS     0.80E-01   14.1     0.00033243     -6910.3134001957  3.92E-03
    39 OT SD       0.80E-01   14.3     0.00001847     -6910.3171807544 -3.78E-03
    40 OT DIIS     0.80E-01   14.7     0.00002849     -6910.3173135303 -1.33E-04
    41 OT SD       0.80E-01   14.4     0.00001808     -6910.3173266375 -1.31E-05
    42 OT SD       0.80E-01   14.3     0.00002308     -6910.3174718591 -1.45E-04
    43 OT DIIS     0.80E-01   14.0     0.00007525     -6910.3174216713  5.02E-05
    44 OT SD       0.80E-01   14.6     0.00001786     -6910.3172299412  1.92E-04
    45 OT SD       0.80E-01   14.1     0.00001938     -6910.3173811177 -1.51E-04
    46 OT SD       0.80E-01   15.0     0.00004248     -6910.3174783879 -9.73E-05
    47 OT DIIS     0.80E-01   14.5     0.00019986     -6910.3161395823  1.34E-03
    48 OT SD       0.80E-01   14.6     0.00001783     -6910.3171248320 -9.85E-04
    49 OT SD       0.80E-01   14.5     0.00001985     -6910.3172746470 -1.50E-04
    50 OT SD       0.80E-01   14.4     0.00004995     -6910.3173481030 -7.35E-05
    51 OT DIIS     0.80E-01   14.3     0.00025429     -6910.3151730204  2.18E-03
    52 OT DIIS     0.80E-01   14.6     0.00001811     -6910.3163954746 -1.22E-03
    53 OT SD       0.80E-01   14.4     0.00001785     -6910.3164765028 -8.10E-05
    54 OT SD       0.80E-01   14.3     0.00002519     -6910.3166107661 -1.34E-04
    55 OT SD       0.80E-01   14.6     0.00009860     -6910.3164153092  1.95E-04
    56 OT DIIS     0.80E-01   14.4     0.00053105     -6910.3063975423  1.00E-02
    57 OT DIIS     0.80E-01   14.1     0.00001840     -6910.3163546414 -9.96E-03
    58 OT SD       0.80E-01   14.4     0.00001785     -6910.3166134273 -2.59E-04
    59 OT SD       0.80E-01   14.2     0.00002576     -6910.3167464963 -1.33E-04
    60 OT DIIS     0.80E-01   14.3     0.00009715     -6910.3165465621  2.00E-04
    61 OT SD       0.80E-01   14.4     0.00001825     -6910.3165391495  7.41E-06
    62 OT SD       0.80E-01   14.5     0.00003011     -6910.3166600370 -1.21E-04
    63 OT SD       0.80E-01   14.5     0.00012226     -6910.3162467250  4.13E-04
    64 OT DIIS     0.80E-01   14.3     0.00062491     -6910.3017289959  1.45E-02
    65 OT SD       0.80E-01   14.0     0.00001971     -6910.3159957921 -1.43E-02
    66 OT SD       0.80E-01   14.3     0.00005300     -6910.3160300853 -3.43E-05
    67 OT DIIS     0.80E-01   14.9     0.00026504     -6910.3135920371  2.44E-03
    68 OT DIIS     0.80E-01   14.9     0.00003676     -6910.3141551138 -5.63E-04
    69 OT DIIS     0.80E-01   14.2     0.00003188     -6910.3143713776 -2.16E-04
    70 OT SD       0.80E-01   14.3     0.00002081     -6910.3159991928 -1.63E-03
    71 OT DIIS     0.80E-01   14.5     0.00006190     -6910.3159843792  1.48E-05
    72 OT SD       0.80E-01   14.2     0.00001998     -6910.3159258371  5.85E-05
    73 OT SD       0.80E-01   14.3     0.00004758     -6910.3159695799 -4.37E-05
    74 OT DIIS     0.80E-01   14.2     0.00021115     -6910.3143671129  1.60E-03
    75 OT DIIS     0.80E-01   14.1     0.00002239     -6910.3155213625 -1.15E-03
    76 OT SD       0.80E-01   14.1     0.00001651     -6910.3161773043 -6.56E-04
    77 OT SD       0.80E-01   14.2     0.00001941     -6910.3163040987 -1.27E-04
    78 OT SD       0.80E-01   14.3     0.00005758     -6910.3163270586 -2.30E-05
    79 OT DIIS     0.80E-01   14.1     0.00030471     -6910.3131437096  3.18E-03
    80 OT SD       0.80E-01   14.2     0.00002113     -6910.3150582033 -1.91E-03
    81 OT SD       0.80E-01   14.1     0.00006481     -6910.3150259541  3.22E-05
    82 OT DIIS     0.80E-01   14.6     0.00032982     -6910.3111088247  3.92E-03
    83 OT DIIS     0.80E-01   14.7     0.00002924     -6910.3138565548 -2.75E-03
    84 OT DIIS     0.80E-01   14.3     0.00002690     -6910.3140137594 -1.57E-04
    85 OT DIIS     0.80E-01   14.2     0.00002404     -6910.3144876994 -4.74E-04
    86 OT DIIS     0.80E-01   14.1     0.00001840     -6910.3155374940 -1.05E-03
    87 OT SD       0.80E-01   14.6     0.00001844     -6910.3157373029 -2.00E-04
    88 OT SD       0.80E-01   14.4     0.00002961     -6910.3158424874 -1.05E-04
    89 OT DIIS     0.80E-01   14.1     0.00012671     -6910.3153838211  4.59E-04
    90 OT SD       0.80E-01   14.3     0.00001958     -6910.3157868777 -4.03E-04
    91 OT SD       0.80E-01   14.3     0.00004950     -6910.3158331103 -4.62E-05
    92 OT DIIS     0.80E-01   14.5     0.00025567     -6910.3136328887  2.20E-03
    93 OT DIIS     0.80E-01   14.4     0.00001689     -6910.3157742910 -2.14E-03
    94 OT DIIS     0.80E-01   14.5     0.00001647     -6910.3160016212 -2.27E-04
    95 OT SD       0.80E-01   14.3     0.00001624     -6910.3160115500 -9.93E-06
    96 OT SD       0.80E-01   14.3     0.00001865     -6910.3161344675 -1.23E-04
    97 OT SD       0.80E-01   14.1     0.00004675     -6910.3161881810 -5.37E-05
    98 OT DIIS     0.80E-01   14.7     0.00022308     -6910.3144513516  1.74E-03
    99 OT SD       0.80E-01   14.6     0.00002576     -6910.3142820522  1.69E-04
   100 OT SD       0.80E-01   14.4     0.00005011     -6910.3143235096 -4.15E-05

  Leaving inner SCF loop after reaching   100 steps.


  Electronic density on regular grids:      -2431.9999999868        0.0000000132
  Core density on regular grids:             2431.9999999988       -0.0000000012
  Total charge density on r-space grids:        0.0000000121
  Total charge density g-space grids:           0.0000000121

  Overlap energy of the core charge distribution:               0.01785506912045
  Self energy of the core charge distribution:             -16017.19408509233290
  Core Hamiltonian energy:                                   4288.60354817609277
  Hartree energy:                                            6144.64309814644639
  Exchange-correlation energy:                              -1324.56304728745226
  Dispersion energy:                                           -1.82169252143861

  Total energy:                                             -6910.31432350956311

  outer SCF iter =    2 RMS gradient =   0.50E-04 energy =      -6910.3143235096

  ----------------------------------- OT ---------------------------------------
  Minimizer      : DIIS                : direct inversion
                                         in the iterative subspace
                                         using   7 DIIS vectors
                                         safer DIIS on
  Preconditioner : FULL_SINGLE_INVERSE : inversion of 
                                         H + eS - 2*(Sc)(c^T*H*c+const)(Sc)^T
  Precond_solver : DEFAULT
  stepsize       :    0.08000000                  energy_gap     :    0.08000000
  eps_taylor     :   0.10000E-15                  max_taylor     :             4
  ----------------------------------- OT ---------------------------------------

  Step     Update method      Time    Convergence         Total energy    Change
  ------------------------------------------------------------------------------
     1 OT DIIS     0.80E-01   39.3     0.00022285     -6910.3125230844  1.80E-03
     2 OT DIIS     0.80E-01   14.1     0.00114639     -6910.2633938779  4.91E-02
     3 OT DIIS     0.80E-01   14.2     0.00008891     -6910.3142345653 -5.08E-02
     4 OT DIIS     0.80E-01   14.2     0.00003313     -6910.3146268543 -3.92E-04
     5 OT DIIS     0.80E-01   14.4     0.00001479     -6910.3146912131 -6.44E-05
     6 OT DIIS     0.80E-01   14.2     0.00001412     -6910.3147224476 -3.12E-05
     7 OT DIIS     0.80E-01   14.3     0.00001395     -6910.3147497392 -2.73E-05
     8 OT DIIS     0.80E-01   14.4     0.00001395     -6910.3147535633 -3.82E-06
     9 OT SD       0.80E-01   14.2     0.00001409     -6910.3148215902 -6.80E-05
    10 OT SD       0.80E-01   14.3     0.00001561     -6910.3149151419 -9.36E-05
    11 OT SD       0.80E-01   14.2     0.00003426     -6910.3149735290 -5.84E-05
    12 OT DIIS     0.80E-01   14.3     0.00015424     -6910.3141604590  8.13E-04
    13 OT SD       0.80E-01   14.3     0.00001501     -6910.3142329553 -7.25E-05
    14 OT SD       0.80E-01   14.5     0.00002856     -6910.3142971553 -6.42E-05
    15 OT DIIS     0.80E-01   14.3     0.00012853     -6910.3137749307  5.22E-04
    16 OT SD       0.80E-01   14.6     0.00001450     -6910.3139567903 -1.82E-04
    17 OT SD       0.80E-01   14.1     0.00002662     -6910.3140201304 -6.33E-05
    18 OT SD       0.80E-01   14.5     0.00011601     -6910.3135973511  4.23E-04
    19 OT DIIS     0.80E-01   15.1     0.00060363     -6910.3001585897  1.34E-02
    20 OT SD       0.80E-01   15.1     0.00002059     -6910.3131176039 -1.30E-02
    21 OT DIIS     0.80E-01   14.1     0.00004737     -6910.3131223621 -4.76E-06
    22 OT SD       0.80E-01   14.3     0.00001533     -6910.3135899965 -4.68E-04
    23 OT SD       0.80E-01   14.6     0.00004322     -6910.3135804402  9.56E-06
    24 OT DIIS     0.80E-01   14.6     0.00020298     -6910.3120521257  1.53E-03
    25 OT DIIS     0.80E-01   14.4     0.00001180     -6910.3135520405 -1.50E-03
    26 OT DIIS     0.80E-01   14.5     0.00001294     -6910.3136725504 -1.21E-04
    27 OT SD       0.80E-01   14.2     0.00001203     -6910.3138190083 -1.46E-04
    28 OT SD       0.80E-01   14.4     0.00002592     -6910.3138538931 -3.49E-05
    29 OT DIIS     0.80E-01   14.4     0.00011920     -6910.3133823693  4.72E-04
    30 OT SD       0.80E-01   14.0     0.00001097     -6910.3137933023 -4.11E-04
    31 OT SD       0.80E-01   14.1     0.00001259     -6910.3138484765 -5.52E-05
    32 OT DIIS     0.80E-01   14.5     0.00003085     -6910.3138738045 -2.53E-05
    33 OT DIIS     0.80E-01   14.2     0.00001105     -6910.3138771393 -3.33E-06
    34 OT SD       0.80E-01   14.1     0.00001113     -6910.3138787303 -1.59E-06
    35 OT SD       0.80E-01   14.2     0.00001503     -6910.3139326947 -5.40E-05
    36 OT SD       0.80E-01   14.5     0.00005400     -6910.3138887454  4.39E-05
    37 OT DIIS     0.80E-01   15.0     0.00028518     -6910.3109984409  2.89E-03
    38 OT DIIS     0.80E-01   14.7     0.00001369     -6910.3132753724 -2.28E-03
    39 OT DIIS     0.80E-01   14.8     0.00001178     -6910.3132694050  5.97E-06
    40 OT DIIS     0.80E-01   15.0     0.00001371     -6910.3133189737 -4.96E-05
    41 OT DIIS     0.80E-01   14.8     0.00001306     -6910.3133122372  6.74E-06
    42 OT SD       0.80E-01   14.8     0.00001139     -6910.3134052339 -9.30E-05
    43 OT DIIS     0.80E-01   15.1     0.00002275     -6910.3134344828 -2.92E-05
    44 OT DIIS     0.80E-01   14.9     0.00001033     -6910.3134310695  3.41E-06
    45 OT DIIS     0.80E-01   15.1     0.00000996     -6910.3134600935 -2.90E-05
    46 OT DIIS     0.80E-01   14.3     0.00001010     -6910.3134728796 -1.28E-05
    47 OT DIIS     0.80E-01   14.5     0.00000998     -6910.3135037771 -3.09E-05
    48 OT SD       0.80E-01   14.4     0.00000993     -6910.3135110592 -7.28E-06
    49 OT SD       0.80E-01   14.1     0.00001040     -6910.3135584948 -4.74E-05
    50 OT SD       0.80E-01   14.1     0.00001866     -6910.3135977028 -3.92E-05
    51 OT DIIS     0.80E-01   14.8     0.00008575     -6910.3133831799  2.15E-04
    52 OT SD       0.80E-01   14.7     0.00001017     -6910.3133106537  7.25E-05
    53 OT SD       0.80E-01   14.8     0.00001497     -6910.3133514293 -4.08E-05
    54 OT DIIS     0.80E-01   14.9     0.00005538     -6910.3132801765  7.13E-05
    55 OT SD       0.80E-01   15.1     0.00001022     -6910.3131810417  9.91E-05
    56 OT SD       0.80E-01   14.7     0.00001917     -6910.3132129943 -3.20E-05
    57 OT SD       0.80E-01   14.7     0.00008307     -6910.3129955208  2.17E-04
    58 OT DIIS     0.80E-01   15.0     0.00043197     -6910.3061299238  6.87E-03
    59 OT DIIS     0.80E-01   15.0     0.00001944     -6910.3125147166 -6.38E-03
    60 OT DIIS     0.80E-01   15.0     0.00001037     -6910.3130169043 -5.02E-04
    61 OT SD       0.80E-01   14.9     0.00001289     -6910.3132738945 -2.57E-04
    62 OT DIIS     0.80E-01   15.0     0.00004900     -6910.3132252235  4.87E-05
    63 OT SD       0.80E-01   14.9     0.00001116     -6910.3132717029 -4.65E-05
    64 OT DIIS     0.80E-01   15.1     0.00003269     -6910.3132679848  3.72E-06
    65 OT SD       0.80E-01   14.7     0.00000905     -6910.3132470876  2.09E-05
    66 OT SD       0.80E-01   15.0     0.00001417     -6910.3132779030 -3.08E-05
    67 OT DIIS     0.80E-01   15.2     0.00005483     -6910.3132011564  7.67E-05
    68 OT DIIS     0.80E-01   15.0     0.00000954     -6910.3131619285  3.92E-05
    69 OT SD       0.80E-01   14.9     0.00000945     -6910.3132629070 -1.01E-04
    70 OT SD       0.80E-01   14.9     0.00001739     -6910.3132867861 -2.39E-05
    71 OT DIIS     0.80E-01   14.9     0.00006343     -6910.3131545057  1.32E-04
    72 OT SD       0.80E-01   14.5     0.00001010     -6910.3130302900  1.24E-04
    73 OT DIIS     0.80E-01   14.6     0.00003505     -6910.3130066902  2.36E-05
    74 OT SD       0.80E-01   14.8     0.00000836     -6910.3129675865  3.91E-05
    75 OT SD       0.80E-01   15.1     0.00002361     -6910.3129665635  1.02E-06
    76 OT DIIS     0.80E-01   14.8     0.00011348     -6910.3124999835  4.67E-04
    77 OT DIIS     0.80E-01   14.5     0.00000780     -6910.3129069335 -4.07E-04
    78 OT SD       0.80E-01   15.3     0.00000744     -6910.3129062145  7.19E-07
    79 OT DIIS     0.80E-01   14.7     0.00002085     -6910.3129064946 -2.80E-07
    80 OT SD       0.80E-01   14.7     0.00000778     -6910.3129044247  2.07E-06
    81 OT DIIS     0.80E-01   14.7     0.00002429     -6910.3128971919  7.23E-06
    82 OT DIIS     0.80E-01   14.8     0.00000623     -6910.3129108018 -1.36E-05
    83 OT DIIS     0.80E-01   14.9     0.00000626     -6910.3129234237 -1.26E-05
    84 OT DIIS     0.80E-01   15.2     0.00000583     -6910.3129362922 -1.29E-05
    85 OT SD       0.80E-01   14.8     0.00000564     -6910.3129495140 -1.32E-05
    86 OT DIIS     0.80E-01   14.9     0.00000943     -6910.3129607019 -1.12E-05
    87 OT DIIS     0.80E-01   15.1     0.00000554     -6910.3129653978 -4.70E-06
    88 OT DIIS     0.80E-01   14.9     0.00000539     -6910.3129783115 -1.29E-05
    89 OT SD       0.80E-01   14.7     0.00000530     -6910.3129871654 -8.85E-06
    90 OT SD       0.80E-01   15.0     0.00000542     -6910.3130007228 -1.36E-05
    91 OT SD       0.80E-01   15.1     0.00000730     -6910.3130134814 -1.28E-05
    92 OT SD       0.80E-01   15.0     0.00002588     -6910.3130030452  1.04E-05
    93 OT DIIS     0.80E-01   14.8     0.00013183     -6910.3123674565  6.36E-04
    94 OT SD       0.80E-01   14.9     0.00000539     -6910.3128483767 -4.81E-04
    95 OT SD       0.80E-01   14.8     0.00000760     -6910.3128598512 -1.15E-05
    96 OT SD       0.80E-01   15.0     0.00002764     -6910.3128438963  1.60E-05
[...]
     4 OT DIIS     0.80E-01   13.3     0.00000208     -6910.3125029779 -6.26E-07
     5 OT DIIS     0.80E-01   13.2     0.00000206     -6910.3125034804 -5.02E-07
     6 OT SD       0.80E-01   13.3     0.00000206     -6910.3125034904 -1.00E-08
     7 OT SD       0.80E-01   13.5     0.00000207     -6910.3125055552 -2.06E-06
     8 OT SD       0.80E-01   13.5     0.00000225     -6910.3125075930 -2.04E-06
     9 OT SD       0.80E-01   13.6     0.00000492     -6910.3125088996 -1.31E-06
    10 OT DIIS     0.80E-01   13.2     0.00002289     -6910.3124912028  1.77E-05
    11 OT SD       0.80E-01   13.4     0.00000208     -6910.3124859867  5.22E-06
    12 OT SD       0.80E-01   13.3     0.00000223     -6910.3124880137 -2.03E-06
    13 OT SD       0.80E-01   13.8     0.00000477     -6910.3124893617 -1.35E-06
    14 OT DIIS     0.80E-01   13.7     0.00002254     -6910.3124725891  1.68E-05
    15 OT DIIS     0.80E-01   14.0     0.00000211     -6910.3124689315  3.66E-06
    16 OT SD       0.80E-01   13.6     0.00000207     -6910.3124815555 -1.26E-05
    17 OT SD       0.80E-01   13.8     0.00000234     -6910.3124835411 -1.99E-06
    18 OT SD       0.80E-01   13.3     0.00000573     -6910.3124844433 -9.02E-07
    19 OT DIIS     0.80E-01   13.6     0.00002647     -6910.3124593767  2.51E-05
    20 OT DIIS     0.80E-01   13.2     0.00000205     -6910.3124847235 -2.53E-05
    21 OT DIIS     0.80E-01   13.5     0.00000205     -6910.3124859750 -1.25E-06
    22 OT DIIS     0.80E-01   13.7     0.00000205     -6910.3124886210 -2.65E-06
    23 OT SD       0.80E-01   13.6     0.00000205     -6910.3124890233 -4.02E-07
    24 OT SD       0.80E-01   13.4     0.00000207     -6910.3124910581 -2.03E-06
    25 OT SD       0.80E-01   13.2     0.00000247     -6910.3124930260 -1.97E-06
    26 OT SD       0.80E-01   13.2     0.00000737     -6910.3124931791 -1.53E-07
    27 OT DIIS     0.80E-01   13.5     0.00003699     -6910.3124441130  4.91E-05
    28 OT SD       0.80E-01   13.3     0.00000209     -6910.3124680469 -2.39E-05
    29 OT SD       0.80E-01   13.5     0.00000249     -6910.3124700011 -1.95E-06
    30 OT SD       0.80E-01   13.5     0.00000710     -6910.3124702372 -2.36E-07
    31 OT DIIS     0.80E-01   13.7     0.00003443     -6910.3124271310  4.31E-05
    32 OT DIIS     0.80E-01   13.6     0.00000207     -6910.3124579370 -3.08E-05
    33 OT SD       0.80E-01   13.4     0.00000205     -6910.3124699837 -1.20E-05
    34 OT DIIS     0.80E-01   13.5     0.00000210     -6910.3124719963 -2.01E-06
    35 OT DIIS     0.80E-01   13.0     0.00000205     -6910.3124739658 -1.97E-06
    36 OT SD       0.80E-01   13.5     0.00000205     -6910.3124782282 -4.26E-06
    37 OT SD       0.80E-01   13.5     0.00000218     -6910.3124802259 -2.00E-06
    38 OT SD       0.80E-01   13.6     0.00000437     -6910.3124816813 -1.46E-06
    39 OT DIIS     0.80E-01   13.5     0.00002020     -6910.3124686143  1.31E-05
    40 OT SD       0.80E-01   13.5     0.00000204     -6910.3124793062 -1.07E-05
    41 OT SD       0.80E-01   13.1     0.00000209     -6910.3124813198 -2.01E-06
    42 OT SD       0.80E-01   13.5     0.00000298     -6910.3124831621 -1.84E-06
    43 OT SD       0.80E-01   13.5     0.00001134     -6910.3124804909  2.67E-06
    44 OT DIIS     0.80E-01   13.4     0.00005835     -6910.3123554371  1.25E-04
    45 OT SD       0.80E-01   13.6     0.00000204     -6910.3124700359 -1.15E-04
    46 OT SD       0.80E-01   13.2     0.00000206     -6910.3124720517 -2.02E-06
    47 OT SD       0.80E-01   13.5     0.00000236     -6910.3124740146 -1.96E-06
    48 OT SD       0.80E-01   13.3     0.00000617     -6910.3124747240 -7.09E-07
    49 OT DIIS     0.80E-01   13.8     0.00002981     -6910.3124431947  3.15E-05
    50 OT DIIS     0.80E-01   13.1     0.00000204     -6910.3124758331 -3.26E-05
    51 OT SD       0.80E-01   13.4     0.00000204     -6910.3124758677 -3.45E-08
    52 OT SD       0.80E-01   13.6     0.00000204     -6910.3124778853 -2.02E-06
    53 OT SD       0.80E-01   13.5     0.00000213     -6910.3124798890 -2.00E-06
    54 OT SD       0.80E-01   13.2     0.00000381     -6910.3124815176 -1.63E-06
    55 OT DIIS     0.80E-01   13.8     0.00001699     -6910.3124729233  8.59E-06
    56 OT SD       0.80E-01   13.5     0.00000204     -6910.3124699082  3.02E-06
    57 OT SD       0.80E-01   13.4     0.00000205     -6910.3124719231 -2.01E-06
    58 OT SD       0.80E-01   13.3     0.00000233     -6910.3124738904 -1.97E-06
    59 OT SD       0.80E-01   13.6     0.00000605     -6910.3124746683 -7.78E-07
    60 OT DIIS     0.80E-01   13.7     0.00002934     -6910.3124442865  3.04E-05
    61 OT DIIS     0.80E-01   13.3     0.00000204     -6910.3124750931 -3.08E-05
    62 OT SD       0.80E-01   13.0     0.00000204     -6910.3124760415 -9.48E-07
    63 OT SD       0.80E-01   13.2     0.00000204     -6910.3124780586 -2.02E-06
    64 OT SD       0.80E-01   13.2     0.00000205     -6910.3124800749 -2.02E-06
    65 OT SD       0.80E-01   13.3     0.00000224     -6910.3124820602 -1.99E-06
    66 OT SD       0.80E-01   13.4     0.00000529     -6910.3124831962 -1.14E-06
    67 OT DIIS     0.80E-01   13.5     0.00002610     -6910.3124603257  2.29E-05
    68 OT SD       0.80E-01   13.7     0.00000204     -6910.3124674662 -7.14E-06
    69 OT SD       0.80E-01   13.7     0.00000209     -6910.3124694730 -2.01E-06
    70 OT SD       0.80E-01   13.5     0.00000299     -6910.3124712984 -1.83E-06
    71 OT SD       0.80E-01   13.2     0.00001080     -6910.3124688881  2.41E-06
    72 OT DIIS     0.80E-01   13.6     0.00005248     -6910.3123637897  1.05E-04
    73 OT DIIS     0.80E-01   13.5     0.00000204     -6910.3124737220 -1.10E-04
    74 OT SD       0.80E-01   13.5     0.00000204     -6910.3124763873 -2.67E-06
    75 OT SD       0.80E-01   13.4     0.00000204     -6910.3124784017 -2.01E-06
    76 OT SD       0.80E-01   13.5     0.00000209     -6910.3124804084 -2.01E-06
    77 OT SD       0.80E-01   13.3     0.00000292     -6910.3124822512 -1.84E-06
    78 OT SD       0.80E-01   13.8     0.00001058     -6910.3124801478  2.10E-06
    79 OT DIIS     0.80E-01   13.4     0.00005394     -6910.3123735727  1.07E-04
    80 OT SD       0.80E-01   13.8     0.00000204     -6910.3124649423 -9.14E-05
    81 OT SD       0.80E-01   13.7     0.00000205     -6910.3124669538 -2.01E-06
    82 OT SD       0.80E-01   13.7     0.00000233     -6910.3124689160 -1.96E-06
    83 OT SD       0.80E-01   13.2     0.00000609     -6910.3124696683 -7.52E-07
    84 OT DIIS     0.80E-01   13.8     0.00002943     -6910.3124389337  3.07E-05
    85 OT DIIS     0.80E-01   13.3     0.00000204     -6910.3124736828 -3.47E-05
    86 OT DIIS     0.80E-01   13.5     0.00000204     -6910.3124768928 -3.21E-06
    87 OT SD       0.80E-01   13.6     0.00000204     -6910.3124772319 -3.39E-07
    88 OT SD       0.80E-01   13.4     0.00000207     -6910.3124792392 -2.01E-06
    89 OT SD       0.80E-01   13.5     0.00000281     -6910.3124811141 -1.87E-06
    90 OT SD       0.80E-01   13.5     0.00001045     -6910.3124792416  1.87E-06
    91 OT DIIS     0.80E-01   13.5     0.00005471     -6910.3123709685  1.08E-04
    92 OT SD       0.80E-01   13.4     0.00000204     -6910.3124653832 -9.44E-05
    93 OT SD       0.80E-01   13.4     0.00000211     -6910.3124673808 -2.00E-06
    94 OT SD       0.80E-01   13.6     0.00000327     -6910.3124691302 -1.75E-06
    95 OT SD       0.80E-01   13.4     0.00001279     -6910.3124649760  4.15E-06
    96 OT DIIS     0.80E-01   13.6     0.00006448     -6910.3123095744  1.55E-04
    97 OT DIIS     0.80E-01   13.3     0.00000204     -6910.3124721279 -1.63E-04
    98 OT DIIS     0.80E-01   13.7     0.00000204     -6910.3124746356 -2.51E-06
    99 OT SD       0.80E-01   13.6     0.00000204     -6910.3124763120 -1.68E-06
   100 OT SD       0.80E-01   13.4     0.00000205     -6910.3124783179 -2.01E-06

  Leaving inner SCF loop after reaching   100 steps.


  Electronic density on regular grids:      -2431.9999999824        0.0000000176
  Core density on regular grids:             2431.9999999988       -0.0000000012
  Total charge density on r-space grids:        0.0000000164
  Total charge density g-space grids:           0.0000000164

  Overlap energy of the core charge distribution:               0.01785506912045
  Self energy of the core charge distribution:             -16017.19408509233290
  Core Hamiltonian energy:                                   4288.58975526689483
  Hartree energy:                                            6144.65536479732873
  Exchange-correlation energy:                              -1324.55967583748247
  Dispersion energy:                                           -1.82169252143861

  Total energy:                                             -6910.31247831790915

  outer SCF iter =   50 RMS gradient =   0.21E-05 energy =      -6910.3124783179

  ----------------------------------- OT ---------------------------------------
  Minimizer      : DIIS                : direct inversion
                                         in the iterative subspace
                                         using   7 DIIS vectors
                                         safer DIIS on
  Preconditioner : FULL_SINGLE_INVERSE : inversion of 
                                         H + eS - 2*(Sc)(c^T*H*c+const)(Sc)^T
  Precond_solver : DEFAULT
  stepsize       :    0.08000000                  energy_gap     :    0.08000000
  eps_taylor     :   0.10000E-15                  max_taylor     :             4
  ----------------------------------- OT ---------------------------------------

  Step     Update method      Time    Convergence         Total energy    Change
  ------------------------------------------------------------------------------
     1 OT DIIS     0.80E-01   36.7     0.00000242     -6910.3124802643 -1.95E-06
     2 OT DIIS     0.80E-01   13.3     0.00000721     -6910.3124805042 -2.40E-07
     3 OT DIIS     0.80E-01   13.3     0.00000205     -6910.3124826560 -2.15E-06
     4 OT SD       0.80E-01   13.3     0.00000204     -6910.3124830012 -3.45E-07
     5 OT SD       0.80E-01   13.6     0.00000204     -6910.3124850116 -2.01E-06
     6 OT SD       0.80E-01   13.4     0.00000209     -6910.3124870152 -2.00E-06
     7 OT SD       0.80E-01   13.7     0.00000280     -6910.3124888746 -1.86E-06
     8 OT SD       0.80E-01   13.6     0.00000933     -6910.3124876138  1.26E-06
     9 OT DIIS     0.80E-01   13.9     0.00004541     -6910.3124106216  7.70E-05
    10 OT DIIS     0.80E-01   13.8     0.00000212     -6910.3124510166 -4.04E-05
    11 OT SD       0.80E-01   13.5     0.00000213     -6910.3124529715 -1.95E-06
    12 OT DIIS     0.80E-01   13.2     0.00000243     -6910.3124549356 -1.96E-06
    13 OT SD       0.80E-01   13.4     0.00000205     -6910.3124829234 -2.80E-05
    14 OT SD       0.80E-01   13.2     0.00000223     -6910.3124848934 -1.97E-06
    15 OT SD       0.80E-01   13.5     0.00000442     -6910.3124862766 -1.38E-06
    16 OT DIIS     0.80E-01   13.1     0.00001931     -6910.3124741148  1.22E-05
    17 OT DIIS     0.80E-01   13.2     0.00000210     -6910.3124701171  4.00E-06
    18 OT SD       0.80E-01   13.6     0.00000205     -6910.3124808083 -1.07E-05
    19 OT SD       0.80E-01   13.9     0.00000231     -6910.3124827700 -1.96E-06
    20 OT SD       0.80E-01   13.4     0.00000593     -6910.3124836086 -8.39E-07
    21 OT DIIS     0.80E-01   13.3     0.00002908     -6910.3124540924  2.95E-05
    22 OT SD       0.80E-01   13.1     0.00000204     -6910.3124812463 -2.72E-05
    23 OT SD       0.80E-01   13.6     0.00000207     -6910.3124832467 -2.00E-06
    24 OT SD       0.80E-01   13.5     0.00000274     -6910.3124851235 -1.88E-06
    25 OT SD       0.80E-01   13.5     0.00000949     -6910.3124838775  1.25E-06
    26 OT DIIS     0.80E-01   13.5     0.00004856     -6910.3123982812  8.56E-05
    27 OT DIIS     0.80E-01   13.5     0.00000205     -6910.3124618161 -6.35E-05
    28 OT SD       0.80E-01   13.4     0.00000205     -6910.3124635549 -1.74E-06
    29 OT DIIS     0.80E-01   13.3     0.00000214     -6910.3124655400 -1.99E-06
    30 OT SD       0.80E-01   13.2     0.00000204     -6910.3124738173 -8.28E-06
    31 OT SD       0.80E-01   13.4     0.00000220     -6910.3124757934 -1.98E-06
    32 OT SD       0.80E-01   13.3     0.00000473     -6910.3124771079 -1.31E-06
    33 OT DIIS     0.80E-01   13.4     0.00002238     -6910.3124605185  1.66E-05
    34 OT SD       0.80E-01   13.2     0.00000203     -6910.3124729349 -1.24E-05
    35 OT SD       0.80E-01   13.6     0.00000204     -6910.3124749346 -2.00E-06
    36 OT SD       0.80E-01   13.4     0.00000229     -6910.3124768931 -1.96E-06
    37 OT SD       0.80E-01   13.5     0.00000569     -6910.3124778179 -9.25E-07
    38 OT DIIS     0.80E-01   13.2     0.00002756     -6910.3124514246  2.64E-05
    39 OT SD       0.80E-01   13.2     0.00000203     -6910.3124694158 -1.80E-05
    40 OT SD       0.80E-01   13.5     0.00000205     -6910.3124714137 -2.00E-06
    41 OT SD       0.80E-01   13.5     0.00000248     -6910.3124733371 -1.92E-06
    42 OT SD       0.80E-01   13.3     0.00000749     -6910.3124733684 -3.13E-08
    43 OT DIIS     0.80E-01   13.3     0.00003749     -6910.3124228004  5.06E-05
    44 OT DIIS     0.80E-01   13.2     0.00000203     -6910.3124734491 -5.06E-05
    45 OT DIIS     0.80E-01   13.5     0.00000203     -6910.3124738437 -3.95E-07
    46 OT DIIS     0.80E-01   13.6     0.00000203     -6910.3124740021 -1.58E-07
    47 OT DIIS     0.80E-01   13.5     0.00000203     -6910.3124741651 -1.63E-07
    48 OT SD       0.80E-01   13.5     0.00000203     -6910.3124753337 -1.17E-06
    49 OT SD       0.80E-01   13.7     0.00000203     -6910.3124773350 -2.00E-06
    50 OT SD       0.80E-01   13.0     0.00000207     -6910.3124793308 -2.00E-06
    51 OT SD       0.80E-01   13.7     0.00000287     -6910.3124811778 -1.85E-06
    52 OT SD       0.80E-01   13.4     0.00001063     -6910.3124790844  2.09E-06
    53 OT DIIS     0.80E-01   13.5     0.00005476     -6910.3123694662  1.10E-04
    54 OT SD       0.80E-01   13.2     0.00000204     -6910.3124612057 -9.17E-05
    55 OT SD       0.80E-01   13.6     0.00000212     -6910.3124631947 -1.99E-06
    56 OT DIIS     0.80E-01   13.8     0.00000356     -6910.3124648744 -1.68E-06
    57 OT SD       0.80E-01   13.3     0.00000203     -6910.3124659943 -1.12E-06
    58 OT DIIS     0.80E-01   13.5     0.00000212     -6910.3124679782 -1.98E-06
    59 OT DIIS     0.80E-01   13.4     0.00000203     -6910.3124699340 -1.96E-06
    60 OT DIIS     0.80E-01   13.3     0.00000203     -6910.3124726402 -2.71E-06
    61 OT SD       0.80E-01   13.5     0.00000203     -6910.3124755714 -2.93E-06
    62 OT SD       0.80E-01   13.4     0.00000203     -6910.3124775697 -2.00E-06
    63 OT SD       0.80E-01   13.3     0.00000210     -6910.3124795578 -1.99E-06
    64 OT SD       0.80E-01   13.7     0.00000306     -6910.3124813395 -1.78E-06
    65 OT SD       0.80E-01   13.6     0.00001065     -6910.3124788641  2.48E-06
    66 OT DIIS     0.80E-01   13.3     0.00004918     -6910.3123836454  9.52E-05
    67 OT DIIS     0.80E-01   13.4     0.00000204     -6910.3124603900 -7.67E-05
    68 OT DIIS     0.80E-01   13.4     0.00000204     -6910.3124611589 -7.69E-07
    69 OT DIIS     0.80E-01   13.6     0.00000203     -6910.3124642757 -3.12E-06
    70 OT SD       0.80E-01   13.6     0.00000204     -6910.3124758724 -1.16E-05
    71 OT SD       0.80E-01   13.7     0.00000217     -6910.3124778495 -1.98E-06
    72 OT SD       0.80E-01   13.8     0.00000447     -6910.3124792610 -1.41E-06
    73 OT DIIS     0.80E-01   13.7     0.00002137     -6910.3124645860  1.47E-05
    74 OT SD       0.80E-01   13.3     0.00000203     -6910.3124723491 -7.76E-06
    75 OT SD       0.80E-01   13.3     0.00000209     -6910.3124743367 -1.99E-06
    76 OT SD       0.80E-01   13.3     0.00000316     -6910.3124761080 -1.77E-06
    77 OT DIIS     0.80E-01   13.5     0.00001259     -6910.3124722532  3.85E-06
    78 OT DIIS     0.80E-01   13.7     0.00000204     -6910.3124662793  5.97E-06
    79 OT SD       0.80E-01   13.6     0.00000203     -6910.3124718579 -5.58E-06
    80 OT SD       0.80E-01   13.4     0.00000206     -6910.3124738491 -1.99E-06
    81 OT SD       0.80E-01   13.6     0.00000250     -6910.3124757578 -1.91E-06
    82 OT SD       0.80E-01   13.3     0.00000708     -6910.3124759034 -1.46E-07
    83 OT DIIS     0.80E-01   13.4     0.00003271     -6910.3124357367  4.02E-05
    84 OT SD       0.80E-01   13.3     0.00000203     -6910.3124685279 -3.28E-05
    85 OT SD       0.80E-01   13.6     0.00000205     -6910.3124705192 -1.99E-06
    86 OT SD       0.80E-01   13.5     0.00000255     -6910.3124724211 -1.90E-06
    87 OT DIIS     0.80E-01   13.0     0.00000789     -6910.3124721592  2.62E-07
    88 OT DIIS     0.80E-01   13.6     0.00000203     -6910.3124700289  2.13E-06
    89 OT DIIS     0.80E-01   13.4     0.00000203     -6910.3124732183 -3.19E-06
    90 OT DIIS     0.80E-01   13.0     0.00000203     -6910.3124751832 -1.96E-06
    91 OT SD       0.80E-01   13.6     0.00000203     -6910.3124761764 -9.93E-07
    92 OT SD       0.80E-01   13.3     0.00000203     -6910.3124781712 -1.99E-06
    93 OT SD       0.80E-01   13.1     0.00000216     -6910.3124801469 -1.98E-06
    94 OT SD       0.80E-01   13.3     0.00000413     -6910.3124816422 -1.50E-06
    95 OT DIIS     0.80E-01   13.3     0.00001831     -6910.3124709796  1.07E-05
    96 OT DIIS     0.80E-01   13.5     0.00000204     -6910.3124583001  1.27E-05
    97 OT DIIS     0.80E-01   13.7     0.00000204     -6910.3124591879 -8.88E-07
    98 OT DIIS     0.80E-01   13.3     0.00000204     -6910.3124595190 -3.31E-07
    99 OT DIIS     0.80E-01   13.2     0.00000204     -6910.3124719308 -1.24E-05
   100 OT DIIS     0.80E-01   13.5     0.00000203     -6910.3124842013 -1.23E-05

  Leaving inner SCF loop after reaching   100 steps.


  Electronic density on regular grids:      -2431.9999999868        0.0000000132
  Core density on regular grids:             2431.9999999988       -0.0000000012
  Total charge density on r-space grids:        0.0000000120
  Total charge density g-space grids:           0.0000000120

  Overlap energy of the core charge distribution:               0.01785506912045
  Self energy of the core charge distribution:             -16017.19408509233290
  Core Hamiltonian energy:                                   4288.58980231714031
  Hartree energy:                                            6144.65532180512855
  Exchange-correlation energy:                              -1324.55968577896056
  Dispersion energy:                                           -1.82169252143861

  Total energy:                                             -6910.31248420134216

  outer SCF iter =   51 RMS gradient =   0.20E-05 energy =      -6910.3124842013
  outer SCF loop FAILED to converge after   51 iterations or 5100 steps


 *******************************************************************************
 *   ___                                                                       *
 *  /   \                                                                      *
 * [ABORT]                                                                     *
 *  \___/     SCF run NOT converged. To continue the calculation regardless,   *
 *    |             please set the keyword IGNORE_CONVERGENCE_FAILURE.         *
 *  O/|                                                                        *
 * /| |                                                                        *
 * / \                                                            qs_scf.F:611 *
 *******************************************************************************


 ===== Routine Calling Stack ===== 

            8 scf_env_do_scf
            7 qs_energies
            6 qs_forces
            5 cp_eval_at
            4 cp_opt_gopt_step
            3 geoopt_lbfgs
            2 cp_geo_opt
            1 CP2K
