 DBCSR| CPU Multiplication driver                                           XSMM (U)
 DBCSR| Multrec recursion limit                                              512 (U)
 DBCSR| Multiplication stack size                                          30000 (D)
 DBCSR| Maximum elements for images                                    UNLIMITED (U)
 DBCSR| Multiplicative factor virtual images                                   1 (U)
 DBCSR| Use multiplication densification                                       F (D)
 DBCSR| Multiplication size stacks                                             3 (U)
 DBCSR| Use memory pool for CPU allocation                                     F (U)
 DBCSR| Number of 3D layers                                               SINGLE (U)
 DBCSR| Use MPI memory allocation                                              F (U)
 DBCSR| Use RMA algorithm                                                      F (U)
 DBCSR| Use Communication thread                                               T (U)
 DBCSR| Communication thread load                                             30 (D)
 DBCSR| MPI: My process id                                                     0
 DBCSR| MPI: Number of processes                                               1
 DBCSR| OMP: Current number of threads                                        16
 DBCSR| OMP: Max number of threads                                            16
 DBCSR| ACC: Number of devices/node                                            1
 DBCSR| ACC: Number of stack-buffers per thread                                8 (U)
 DBCSR| ACC: Avoid driver after busy                                           F (U)
 DBCSR| ACC: Process inhomogeneous stacks                                      T (U)
 DBCSR| ACC: Min. flop for processing                                          0 (U)
 DBCSR| ACC: Use G2G algorithm                                                 F (D)
 DBCSR| ACC: Min. flop for sorting                                          4000 (U)
 DBCSR| ACC: Number of binning bins                                         4096 (U)
 DBCSR| ACC: Size of binning bins                                             16 (U)
 DBCSR| ACC: GPU backend is enabled                                            T (D)
 DBCSR| Split modifier for TAS multiplication algorithm                  1.0E+00 (U)


  **** **** ******  **  PROGRAM STARTED AT               2025-10-22 15:23:34.652
 ***** ** ***  *** **   PROGRAM STARTED ON                          dcff070bdab8
 **    ****   ******    PROGRAM STARTED BY                             <unknown>
 ***** **    ** ** **   PROGRAM PROCESS ID                                   614
  **** **  *******  **  PROGRAM STARTED IN                             /mnt/cp2k

 CP2K| version string:                                       CP2K version 2025.1
 CP2K| source code revision number:                                  git:9635df4
 CP2K| cp2kflags: omp libint fftw3 libxc libgrpp pexsi elpa elpa_nvidia_gpu para
 CP2K|            llel scalapack cosma quip xsmm dbcsr_acc plumed2 spglib libdft
 CP2K|            td4 sirius libvori libbqb offload_cuda spla_gemm_offloading li
 CP2K|            ibvdwxc hdf5 trexio
 CP2K| is freely available from                            https://www.cp2k.org/
 CP2K| Program compiled at                          Tue Jan 14 21:07:27 UTC 2025
 CP2K| Program compiled on                                          eb3a76499499
 CP2K| Program compiled for                                           local_cuda
 CP2K| Data directory path                                        /opt/cp2k/data
 CP2K| Input file name                                           HAP_222_opt.inp

 GLOBAL| Force Environment number                                              1
 GLOBAL| Basis set file name                                        BASIS_MOLOPT
 GLOBAL| Potential file name                                      GTH_POTENTIALS
 GLOBAL| MM Potential file name                                     MM_POTENTIAL
 GLOBAL| Coordinate file name                                  HAP_222_clean.xyz
 GLOBAL| Method name                                                        CP2K
 GLOBAL| Project name                                                HAP_222_opt
 GLOBAL| Run type                                                        GEO_OPT
 GLOBAL| FFT library                                                       FFTW3
 GLOBAL| Diagonalization library                                            ELPA
 GLOBAL| DGEMM library                                                      SPLA
 GLOBAL| Minimum number of eigenvectors for ELPA usage                        16
 GLOBAL| Orthonormality check for eigenvectors                          DISABLED
 GLOBAL| Matrix multiplication library                                     COSMA
 GLOBAL| All-to-all communication in single precision                          F
 GLOBAL| FFTs using library dependent lengths                                  F
 GLOBAL| Grid backend                                                       AUTO
 GLOBAL| Global print level                                                  LOW
 GLOBAL| MPI I/O enabled                                                       T
 GLOBAL| Total number of message passing processes                             1
 GLOBAL| Number of threads for this process                                   16
 GLOBAL| This output is from process                                           0
 GLOBAL| OpenMP stack size per thread (OMP_STACKSIZE)                        16M
 GLOBAL| CPU model name                           Intel(R) Core(TM) Ultra 7 265K
 GLOBAL| CPUID                                                              1002
 GLOBAL| Compiled for CPUID                                                    0

 *** HINT in environment.F:928 :: The compiler target flags (generic) used ***
 *** to build this binary cannot exploit all extensions of this CPU model  ***
 *** (x86_avx2). Consider compiler target flags as part of FCFLAGS and     ***
 *** CFLAGS (ARCH file).                                                   ***


 MEMORY| system memory details [Kb]
 MEMORY|                        rank 0           min           max       average
 MEMORY| MemTotal             49330320      49330320      49330320      49330320
 MEMORY| MemFree              47807968      47807968      47807968      47807968
 MEMORY| Buffers                  4180          4180          4180          4180
 MEMORY| Cached                 659080        659080        659080        659080
 MEMORY| Slab                   118620        118620        118620        118620
 MEMORY| SReclaimable            42280         42280         42280         42280
 MEMORY| MemLikelyFree        48513508      48513508      48513508      48513508


 GENERATE|  Preliminary Number of Bonds generated:                             0
 GENERATE|  Achieved consistency in connectivity generation.

 *******************************************************************************
 *******************************************************************************
 **                                                                           **
 **     #####                         ##              ##                      **
 **    ##   ##            ##          ##              ##                      **
 **   ##     ##                       ##            ######                    **
 **   ##     ##  ##   ##  ##   #####  ##  ##   ####   ##    #####    #####    **
 **   ##     ##  ##   ##  ##  ##      ## ##   ##      ##   ##   ##  ##   ##   **
 **   ##  ## ##  ##   ##  ##  ##      ####     ###    ##   ######   ######    **
 **    ##  ###   ##   ##  ##  ##      ## ##      ##   ##   ##       ##        **
 **     #######   #####   ##   #####  ##  ##  ####    ##    #####   ##        **
 **           ##                                                    ##        **
 **                                                                           **
 **                                                ... make the atoms dance   **
 **                                                                           **
 **            Copyright (C) by CP2K developers group (2000-2025)             **
 **                      J. Chem. Phys. 152, 194103 (2020)                    **
 **                                                                           **
 *******************************************************************************


 TOTAL NUMBERS AND MAXIMUM NUMBERS

  Total number of            - Atomic kinds:                                   5
                             - Atoms:                                        387
                             - Shell sets:                                   387
                             - Shells:                                      2015
                             - Primitive Cartesian functions:               2031
                             - Cartesian basis functions:                   5338
                             - Spherical basis functions:                   4983

  Maximum angular momentum of- Orbital basis functions:                        2
                             - Local part of the GTH pseudopotential:          2
                             - Non-local part of the GTH pseudopotential:      3


 SCF PARAMETERS         Density guess:                                    ATOMIC
                        --------------------------------------------------------
                        max_scf:                                             100
                        max_scf_history:                                       0
                        max_diis:                                              4
                        --------------------------------------------------------
                        eps_scf:                                        1.00E-06
                        eps_scf_history:                                0.00E+00
                        eps_diis:                                       1.00E-01
                        eps_eigval:                                     1.00E-05
                        --------------------------------------------------------
                        level_shift [a.u.]:                             0.000000
                        --------------------------------------------------------
                        Outer loop SCF in use 
                        No variables optimised in outer loop
                        eps_scf                                         1.00E-06
                        max_scf                                               50
                        No outer loop optimization
                        step_size                                       5.00E-01

 *******************************************************************************
 ***                     STARTING GEOMETRY OPTIMIZATION                      ***
 ***                                 L-BFGS                                  ***
 *******************************************************************************

 --------------------------
 OPTIMIZATION STEP:      1
 --------------------------

 Number of electrons:                                                       2432
 Number of occupied orbitals:                                               1216
 Number of molecular orbitals:                                              1216

 Number of orbital functions:                                               4983
 Number of independent orbital functions:                                   4983

 Extrapolation method: initial_guess


 SCF WAVEFUNCTION OPTIMIZATION

  ----------------------------------- OT ---------------------------------------
  Minimizer      : DIIS                : direct inversion
                                         in the iterative subspace
                                         using   7 DIIS vectors
                                         safer DIIS on
  Preconditioner : FULL_SINGLE_INVERSE : inversion of 
                                         H + eS - 2*(Sc)(c^T*H*c+const)(Sc)^T
  Precond_solver : DEFAULT
  stepsize       :    0.08000000                  energy_gap     :    0.08000000
  eps_taylor     :   0.10000E-15                  max_taylor     :             4
  ----------------------------------- OT ---------------------------------------

  Step     Update method      Time    Convergence         Total energy    Change
  ------------------------------------------------------------------------------
     1 OT DIIS     0.80E-01   27.5     0.01633743     -6698.5129061550 -6.70E+03
     2 OT DIIS     0.80E-01   13.1     0.00957181     -6773.4909216385 -7.50E+01
     3 OT DIIS     0.80E-01   13.0     0.00677897     -6805.3610840116 -3.19E+01
     4 OT DIIS     0.80E-01   13.8     0.00469058     -6838.4535524110 -3.31E+01
     5 OT DIIS     0.80E-01   13.1     0.00364261     -6852.7690478383 -1.43E+01
     6 OT DIIS     0.80E-01   13.2     0.00285628     -6863.5363876500 -1.08E+01
     7 OT DIIS     0.80E-01   13.1     0.00227213     -6871.5631448772 -8.03E+00
     8 OT DIIS     0.80E-01   13.3     0.00175708     -6878.3001579593 -6.74E+00
     9 OT DIIS     0.80E-01   12.9     0.00140897     -6882.2277872055 -3.93E+00
    10 OT DIIS     0.80E-01   13.1     0.00110861     -6885.0037193324 -2.78E+00
    11 OT DIIS     0.80E-01   13.2     0.00088321     -6886.9513513366 -1.95E+00
    12 OT DIIS     0.80E-01   13.0     0.00073863     -6888.0812144705 -1.13E+00
    13 OT DIIS     0.80E-01   13.1     0.00061553     -6888.9763374169 -8.95E-01
    14 OT DIIS     0.80E-01   13.1     0.00050948     -6889.6875817039 -7.11E-01
    15 OT DIIS     0.80E-01   13.1     0.00043243     -6890.1605159809 -4.73E-01
    16 OT DIIS     0.80E-01   13.3     0.00037610     -6890.4940510421 -3.34E-01
    17 OT DIIS     0.80E-01   13.8     0.00032526     -6890.7954005529 -3.01E-01
    18 OT DIIS     0.80E-01   13.6     0.00028736     -6891.0071632161 -2.12E-01
    19 OT DIIS     0.80E-01   13.8     0.00025419     -6891.1819810254 -1.75E-01
    20 OT DIIS     0.80E-01   13.6     0.00022441     -6891.3432680036 -1.61E-01
    21 OT DIIS     0.80E-01   13.2     0.00019843     -6891.4782597902 -1.35E-01
    22 OT DIIS     0.80E-01   13.0     0.00018091     -6891.5646048461 -8.63E-02
    23 OT DIIS     0.80E-01   13.1     0.00016266     -6891.6502838927 -8.57E-02
    24 OT DIIS     0.80E-01   13.3     0.00014313     -6891.7471472105 -9.69E-02
    25 OT DIIS     0.80E-01   13.0     0.00013196     -6891.7979859586 -5.08E-02
    26 OT DIIS     0.80E-01   13.2     0.00012194     -6891.8433429093 -4.54E-02
    27 OT DIIS     0.80E-01   13.1     0.00011026     -6891.9000243772 -5.67E-02
    28 OT DIIS     0.80E-01   13.1     0.00010286     -6891.9343577902 -3.43E-02
    29 OT DIIS     0.80E-01   13.1     0.00009683     -6891.9614359138 -2.71E-02
    30 OT DIIS     0.80E-01   13.0     0.00008847     -6891.9993469175 -3.79E-02
    31 OT DIIS     0.80E-01   13.2     0.00008181     -6892.0314350368 -3.21E-02
    32 OT DIIS     0.80E-01   13.1     0.00007729     -6892.0506803755 -1.92E-02
    33 OT DIIS     0.80E-01   13.1     0.00007174     -6892.0738288015 -2.31E-02
    34 OT DIIS     0.80E-01   13.1     0.00006632     -6892.0984844023 -2.47E-02
    35 OT DIIS     0.80E-01   13.6     0.00006248     -6892.1154518111 -1.70E-02
    36 OT DIIS     0.80E-01   13.1     0.00005918     -6892.1287811359 -1.33E-02
    37 OT DIIS     0.80E-01   13.0     0.00005534     -6892.1463257628 -1.75E-02
    38 OT DIIS     0.80E-01   12.9     0.00005271     -6892.1605106370 -1.42E-02
    39 OT DIIS     0.80E-01   13.1     0.00005104     -6892.1670775951 -6.57E-03
    40 OT DIIS     0.80E-01   13.1     0.00004772     -6892.1798084787 -1.27E-02
    41 OT DIIS     0.80E-01   13.3     0.00004427     -6892.1949159566 -1.51E-02
    42 OT DIIS     0.80E-01   13.1     0.00004187     -6892.2048748092 -9.96E-03
    43 OT DIIS     0.80E-01   12.9     0.00003995     -6892.2112305503 -6.36E-03
    44 OT DIIS     0.80E-01   13.0     0.00003716     -6892.2217501591 -1.05E-02
    45 OT DIIS     0.80E-01   13.3     0.00003540     -6892.2291222643 -7.37E-03
    46 OT DIIS     0.80E-01   13.2     0.00003394     -6892.2342314709 -5.11E-03
    47 OT DIIS     0.80E-01   13.4     0.00003162     -6892.2425211841 -8.29E-03
    48 OT DIIS     0.80E-01   13.8     0.00003051     -6892.2463794813 -3.86E-03
    49 OT DIIS     0.80E-01   13.3     0.00002914     -6892.2511546656 -4.78E-03
    50 OT DIIS     0.80E-01   13.3     0.00002809     -6892.2550569913 -3.90E-03
    51 OT DIIS     0.80E-01   13.4     0.00002735     -6892.2579007204 -2.84E-03
    52 OT DIIS     0.80E-01   13.3     0.00002636     -6892.2623584867 -4.46E-03
    53 OT DIIS     0.80E-01   13.5     0.00002582     -6892.2649025749 -2.54E-03
    54 OT DIIS     0.80E-01   13.3     0.00002508     -6892.2685028518 -3.60E-03
    55 OT DIIS     0.80E-01   13.1     0.00002435     -6892.2724988799 -4.00E-03
    56 OT DIIS     0.80E-01   13.1     0.00002352     -6892.2763034076 -3.80E-03
    57 OT DIIS     0.80E-01   13.2     0.00002282     -6892.2800347303 -3.73E-03
    58 OT DIIS     0.80E-01   13.3     0.00002197     -6892.2835354587 -3.50E-03
    59 OT DIIS     0.80E-01   13.0     0.00002133     -6892.2875117207 -3.98E-03
    60 OT DIIS     0.80E-01   13.2     0.00002048     -6892.2903804526 -2.87E-03
    61 OT DIIS     0.80E-01   13.0     0.00001951     -6892.2946186204 -4.24E-03
    62 OT DIIS     0.80E-01   13.2     0.00001891     -6892.2977406691 -3.12E-03
    63 OT DIIS     0.80E-01   13.1     0.00001820     -6892.2990779658 -1.34E-03
    64 OT DIIS     0.80E-01   13.3     0.00001737     -6892.3022145493 -3.14E-03
    65 OT DIIS     0.80E-01   13.1     0.00001665     -6892.3047168470 -2.50E-03
    66 OT DIIS     0.80E-01   13.4     0.00001622     -6892.3065320947 -1.82E-03
    67 OT DIIS     0.80E-01   13.6     0.00001558     -6892.3084896536 -1.96E-03
    68 OT DIIS     0.80E-01   13.3     0.00001517     -6892.3098224555 -1.33E-03
    69 OT DIIS     0.80E-01   13.2     0.00001487     -6892.3117320563 -1.91E-03
    70 OT DIIS     0.80E-01   13.3     0.00001450     -6892.3124484953 -7.16E-04
    71 OT DIIS     0.80E-01   13.4     0.00001406     -6892.3140308628 -1.58E-03
    72 OT DIIS     0.80E-01   13.4     0.00001376     -6892.3155298927 -1.50E-03
    73 OT DIIS     0.80E-01   13.2     0.00001338     -6892.3169320325 -1.40E-03
    74 OT DIIS     0.80E-01   13.0     0.00001316     -6892.3176682562 -7.36E-04
    75 OT DIIS     0.80E-01   13.1     0.00001276     -6892.3191240277 -1.46E-03
    76 OT DIIS     0.80E-01   13.0     0.00001231     -6892.3209804952 -1.86E-03
    77 OT DIIS     0.80E-01   13.0     0.00001215     -6892.3213831851 -4.03E-04
    78 OT DIIS     0.80E-01   13.6     0.00001189     -6892.3226389881 -1.26E-03
    79 OT DIIS     0.80E-01   13.4     0.00001164     -6892.3232825099 -6.44E-04
    80 OT DIIS     0.80E-01   13.3     0.00001147     -6892.3242250545 -9.43E-04
    81 OT DIIS     0.80E-01   13.3     0.00001118     -6892.3252676377 -1.04E-03
    82 OT DIIS     0.80E-01   13.4     0.00001092     -6892.3263551202 -1.09E-03
    83 OT DIIS     0.80E-01   13.2     0.00001067     -6892.3274321508 -1.08E-03
    84 OT DIIS     0.80E-01   13.3     0.00001050     -6892.3282209953 -7.89E-04
    85 OT DIIS     0.80E-01   13.5     0.00001034     -6892.3287783039 -5.57E-04
    86 OT DIIS     0.80E-01   13.4     0.00001009     -6892.3295724584 -7.94E-04
    87 OT DIIS     0.80E-01   13.4     0.00000988     -6892.3305589530 -9.86E-04
    88 OT DIIS     0.80E-01   13.5     0.00000984     -6892.3307122049 -1.53E-04
    89 OT DIIS     0.80E-01   13.6     0.00000958     -6892.3314771052 -7.65E-04
    90 OT DIIS     0.80E-01   13.4     0.00000944     -6892.3322406706 -7.64E-04
    91 OT DIIS     0.80E-01   13.2     0.00000932     -6892.3331109553 -8.70E-04
    92 OT DIIS     0.80E-01   13.3     0.00000916     -6892.3335356162 -4.25E-04
    93 OT DIIS     0.80E-01   13.2     0.00000891     -6892.3345450876 -1.01E-03
    94 OT DIIS     0.80E-01   13.0     0.00000871     -6892.3356067386 -1.06E-03
    95 OT DIIS     0.80E-01   13.0     0.00000874     -6892.3357275224 -1.21E-04
    96 OT DIIS     0.80E-01   13.1     0.00000854     -6892.3367042815 -9.77E-04
    97 OT DIIS     0.80E-01   13.0     0.00000830     -6892.3371893712 -4.85E-04
    98 OT DIIS     0.80E-01   13.2     0.00000822     -6892.3378573802 -6.68E-04
    99 OT DIIS     0.80E-01   13.4     0.00000801     -6892.3386652047 -8.08E-04
   100 OT DIIS     0.80E-01   13.5     0.00000792     -6892.3398105492 -1.15E-03

  Leaving inner SCF loop after reaching   100 steps.


  Electronic density on regular grids:      -2432.0000000002       -0.0000000002
  Core density on regular grids:             2431.9999999988       -0.0000000012
  Total charge density on r-space grids:       -0.0000000014
  Total charge density g-space grids:          -0.0000000014

  Overlap energy of the core charge distribution:               0.02768607134069
  Self energy of the core charge distribution:             -16017.19408509233290
  Core Hamiltonian energy:                                   4328.38909365596101
  Hartree energy:                                            6126.77849314317427
  Exchange-correlation energy:                              -1328.59054267964007
  Dispersion energy:                                           -1.75045564768295

  Total energy:                                             -6892.33981054917967

  outer SCF iter =    1 RMS gradient =   0.79E-05 energy =      -6892.3398105492

  ----------------------------------- OT ---------------------------------------
  Minimizer      : DIIS                : direct inversion
                                         in the iterative subspace
                                         using   7 DIIS vectors
                                         safer DIIS on
  Preconditioner : FULL_SINGLE_INVERSE : inversion of 
                                         H + eS - 2*(Sc)(c^T*H*c+const)(Sc)^T
  Precond_solver : DEFAULT
  stepsize       :    0.08000000                  energy_gap     :    0.08000000
  eps_taylor     :   0.10000E-15                  max_taylor     :             4
  ----------------------------------- OT ---------------------------------------

  Step     Update method      Time    Convergence         Total energy    Change
  ------------------------------------------------------------------------------
     1 OT DIIS     0.80E-01   37.6     0.00010244     -6892.3405429678 -7.32E-04
     2 OT DIIS     0.80E-01   12.8     0.00011655     -6892.3436011150 -3.06E-03
     3 OT DIIS     0.80E-01   12.7     0.00012798     -6892.3444861197 -8.85E-04
     4 OT DIIS     0.80E-01   12.6     0.00010190     -6892.3457742645 -1.29E-03
     5 OT DIIS     0.80E-01   12.9     0.00008180     -6892.3473770353 -1.60E-03
     6 OT DIIS     0.80E-01   12.6     0.00006684     -6892.3482929453 -9.16E-04
     7 OT DIIS     0.80E-01   12.8     0.00005814     -6892.3493593622 -1.07E-03
     8 OT DIIS     0.80E-01   12.7     0.00005131     -6892.3502509890 -8.92E-04
     9 OT DIIS     0.80E-01   12.9     0.00004305     -6892.3510154270 -7.64E-04
    10 OT DIIS     0.80E-01   12.8     0.00004502     -6892.3518037324 -7.88E-04
    11 OT DIIS     0.80E-01   13.5     0.00004064     -6892.3527088342 -9.05E-04
    12 OT DIIS     0.80E-01   13.1     0.00004051     -6892.3534911042 -7.82E-04
    13 OT DIIS     0.80E-01   13.4     0.00004170     -6892.3542624225 -7.71E-04
    14 OT DIIS     0.80E-01   13.5     0.00004036     -6892.3549987669 -7.36E-04
    15 OT DIIS     0.80E-01   13.6     0.00003896     -6892.3555170017 -5.18E-04
    16 OT DIIS     0.80E-01   13.5     0.00003819     -6892.3559933561 -4.76E-04
    17 OT DIIS     0.80E-01   13.4     0.00003611     -6892.3564265293 -4.33E-04
    18 OT DIIS     0.80E-01   13.3     0.00003261     -6892.3570429259 -6.16E-04
    19 OT DIIS     0.80E-01   13.1     0.00003614     -6892.3571198143 -7.69E-05
    20 OT DIIS     0.80E-01   13.2     0.00003565     -6892.3573965116 -2.77E-04
    21 OT DIIS     0.80E-01   13.3     0.00003346     -6892.3576738479 -2.77E-04
    22 OT DIIS     0.80E-01   13.4     0.00003358     -6892.3576728030  1.04E-06
    23 OT DIIS     0.80E-01   13.4     0.00002997     -6892.3577661047 -9.33E-05
    24 OT DIIS     0.80E-01   13.5     0.00002645     -6892.3578476977 -8.16E-05
    25 OT DIIS     0.80E-01   13.3     0.00002371     -6892.3579464672 -9.88E-05
    26 OT DIIS     0.80E-01   13.0     0.00002125     -6892.3580188797 -7.24E-05
    27 OT DIIS     0.80E-01   13.0     0.00002132     -6892.3580831295 -6.42E-05
    28 OT DIIS     0.80E-01   13.2     0.00002082     -6892.3581766203 -9.35E-05
    29 OT DIIS     0.80E-01   13.2     0.00002116     -6892.3582914099 -1.15E-04
    30 OT DIIS     0.80E-01   13.2     0.00002294     -6892.3583480049 -5.66E-05
    31 OT DIIS     0.80E-01   13.1     0.00002290     -6892.3584375169 -8.95E-05
    32 OT DIIS     0.80E-01   13.0     0.00002244     -6892.3585252260 -8.77E-05
    33 OT DIIS     0.80E-01   13.0     0.00002173     -6892.3586293157 -1.04E-04
    34 OT DIIS     0.80E-01   13.1     0.00002029     -6892.3586479948 -1.87E-05
    35 OT DIIS     0.80E-01   13.3     0.00001997     -6892.3587131303 -6.51E-05
    36 OT DIIS     0.80E-01   13.1     0.00001885     -6892.3587627298 -4.96E-05
    37 OT DIIS     0.80E-01   13.0     0.00001791     -6892.3588253214 -6.26E-05
    38 OT DIIS     0.80E-01   13.0     0.00001796     -6892.3588630020 -3.77E-05
    39 OT DIIS     0.80E-01   13.1     0.00001761     -6892.3589142026 -5.12E-05
    40 OT DIIS     0.80E-01   13.0     0.00001725     -6892.3589770164 -6.28E-05
    41 OT DIIS     0.80E-01   13.1     0.00001752     -6892.3590635786 -8.66E-05
    42 OT DIIS     0.80E-01   13.0     0.00001767     -6892.3590922513 -2.87E-05
    43 OT DIIS     0.80E-01   13.1     0.00001820     -6892.3591837650 -9.15E-05
    44 OT DIIS     0.80E-01   13.0     0.00001843     -6892.3592333294 -4.96E-05
    45 OT DIIS     0.80E-01   13.1     0.00001787     -6892.3592777701 -4.44E-05
    46 OT DIIS     0.80E-01   13.2     0.00001782     -6892.3593142888 -3.65E-05
    47 OT DIIS     0.80E-01   13.2     0.00001705     -6892.3593418001 -2.75E-05
    48 OT DIIS     0.80E-01   13.0     0.00001573     -6892.3593809829 -3.92E-05
    49 OT DIIS     0.80E-01   13.0     0.00001521     -6892.3594367911 -5.58E-05
    50 OT DIIS     0.80E-01   13.0     0.00001484     -6892.3594507253 -1.39E-05
    51 OT DIIS     0.80E-01   13.0     0.00001482     -6892.3595175313 -6.68E-05
    52 OT DIIS     0.80E-01   13.2     0.00001534     -6892.3595648123 -4.73E-05
    53 OT DIIS     0.80E-01   13.1     0.00001558     -6892.3596069382 -4.21E-05
    54 OT DIIS     0.80E-01   13.1     0.00001629     -6892.3596623656 -5.54E-05
    55 OT DIIS     0.80E-01   13.1     0.00001664     -6892.3596940955 -3.17E-05
    56 OT DIIS     0.80E-01   13.2     0.00001583     -6892.3597317564 -3.77E-05
    57 OT DIIS     0.80E-01   13.1     0.00001524     -6892.3597789508 -4.72E-05
    58 OT DIIS     0.80E-01   13.0     0.00001445     -6892.3597755943  3.36E-06
    59 OT DIIS     0.80E-01   13.2     0.00001377     -6892.3598264707 -5.09E-05
    60 OT DIIS     0.80E-01   13.1     0.00001360     -6892.3598568799 -3.04E-05
    61 OT DIIS     0.80E-01   13.1     0.00001332     -6892.3598807542 -2.39E-05
    62 OT DIIS     0.80E-01   13.2     0.00001345     -6892.3599251504 -4.44E-05
    63 OT DIIS     0.80E-01   12.9     0.00001390     -6892.3599576858 -3.25E-05
    64 OT DIIS     0.80E-01   13.3     0.00001393     -6892.3599976737 -4.00E-05
    65 OT DIIS     0.80E-01   13.4     0.00001405     -6892.3600450724 -4.74E-05
    66 OT DIIS     0.80E-01   13.3     0.00001414     -6892.3600527740 -7.70E-06
    67 OT DIIS     0.80E-01   13.2     0.00001374     -6892.3601039511 -5.12E-05
    68 OT DIIS     0.80E-01   13.5     0.00001366     -6892.3601298901 -2.59E-05
    69 OT DIIS     0.80E-01   13.6     0.00001305     -6892.3601369127 -7.02E-06
    70 OT DIIS     0.80E-01   13.6     0.00001256     -6892.3601707709 -3.39E-05
    71 OT DIIS     0.80E-01   13.4     0.00001239     -6892.3601923235 -2.16E-05
    72 OT DIIS     0.80E-01   13.4     0.00001207     -6892.3602195611 -2.72E-05
    73 OT DIIS     0.80E-01   13.4     0.00001203     -6892.3602532224 -3.37E-05
    74 OT DIIS     0.80E-01   13.4     0.00001228     -6892.3602711678 -1.79E-05
    75 OT DIIS     0.80E-01   13.5     0.00001224     -6892.3603181427 -4.70E-05
    76 OT DIIS     0.80E-01   13.2     0.00001279     -6892.3603526342 -3.45E-05
    77 OT DIIS     0.80E-01   13.1     0.00001284     -6892.3603605857 -7.95E-06
    78 OT DIIS     0.80E-01   12.9     0.00001259     -6892.3603940066 -3.34E-05
    79 OT DIIS     0.80E-01   13.3     0.00001248     -6892.3604125975 -1.86E-05
    80 OT DIIS     0.80E-01   13.1     0.00001185     -6892.3604323259 -1.97E-05
    81 OT DIIS     0.80E-01   13.8     0.00001134     -6892.3604530428 -2.07E-05
    82 OT DIIS     0.80E-01   13.7     0.00001110     -6892.3604657559 -1.27E-05
    83 OT DIIS     0.80E-01   13.4     0.00001078     -6892.3604966178 -3.09E-05
    84 OT DIIS     0.80E-01   13.3     0.00001105     -6892.3605262988 -2.97E-05
    85 OT DIIS     0.80E-01   13.5     0.00001128     -6892.3605402352 -1.39E-05
    86 OT DIIS     0.80E-01   13.7     0.00001142     -6892.3605733919 -3.32E-05
    87 OT DIIS     0.80E-01   13.5     0.00001182     -6892.3605997679 -2.64E-05
    88 OT DIIS     0.80E-01   17.3     0.00001170     -6892.3606223094 -2.25E-05
    89 OT DIIS     0.80E-01   13.9     0.00001140     -6892.3606364133 -1.41E-05
    90 OT DIIS     0.80E-01   13.5     0.00001114     -6892.3606488192 -1.24E-05
    91 OT DIIS     0.80E-01   13.0     0.00001048     -6892.3606702860 -2.15E-05
    92 OT DIIS     0.80E-01   13.4     0.00001037     -6892.3606928844 -2.26E-05
    93 OT DIIS     0.80E-01   13.1     0.00001022     -6892.3607016690 -8.78E-06
    94 OT DIIS     0.80E-01   13.2     0.00001007     -6892.3607243558 -2.27E-05
    95 OT DIIS     0.80E-01   13.0     0.00001026     -6892.3607484044 -2.40E-05
    96 OT DIIS     0.80E-01   13.2     0.00001041     -6892.3607722175 -2.38E-05
    97 OT DIIS     0.80E-01   13.2     0.00001055     -6892.3607881725 -1.60E-05
    98 OT DIIS     0.80E-01   13.4     0.00001076     -6892.3608107852 -2.26E-05
    99 OT DIIS     0.80E-01   13.0     0.00001040     -6892.3608295847 -1.88E-05
   100 OT DIIS     0.80E-01   13.5     0.00001041     -6892.3608511386 -2.16E-05

  Leaving inner SCF loop after reaching   100 steps.


  Electronic density on regular grids:      -2432.0000000002       -0.0000000002
  Core density on regular grids:             2431.9999999988       -0.0000000012
  Total charge density on r-space grids:       -0.0000000014
  Total charge density g-space grids:          -0.0000000014

  Overlap energy of the core charge distribution:               0.02768607134069
  Self energy of the core charge distribution:             -16017.19408509233290
  Core Hamiltonian energy:                                   4328.33335237045230
  Hartree energy:                                            6126.81355200689632
  Exchange-correlation energy:                              -1328.59090084730610
  Dispersion energy:                                           -1.75045564768295

  Total energy:                                             -6892.36085113863282

  outer SCF iter =    2 RMS gradient =   0.10E-04 energy =      -6892.3608511386

  ----------------------------------- OT ---------------------------------------
  Minimizer      : DIIS                : direct inversion
                                         in the iterative subspace
                                         using   7 DIIS vectors
                                         safer DIIS on
  Preconditioner : FULL_SINGLE_INVERSE : inversion of 
                                         H + eS - 2*(Sc)(c^T*H*c+const)(Sc)^T
  Precond_solver : DEFAULT
  stepsize       :    0.08000000                  energy_gap     :    0.08000000
  eps_taylor     :   0.10000E-15                  max_taylor     :             4
  ----------------------------------- OT ---------------------------------------

  Step     Update method      Time    Convergence         Total energy    Change
  ------------------------------------------------------------------------------
     1 OT DIIS     0.80E-01   33.9     0.00001025     -6892.3608559313 -4.79E-06
     2 OT DIIS     0.80E-01   12.3     0.00003156     -6892.3608612022 -5.27E-06
     3 OT DIIS     0.80E-01   12.7     0.00000924     -6892.3608988435 -3.76E-05
     4 OT DIIS     0.80E-01   12.4     0.00000869     -6892.3609087544 -9.91E-06
     5 OT DIIS     0.80E-01   12.5     0.00001151     -6892.3610225860 -1.14E-04
     6 OT DIIS     0.80E-01   12.9     0.00001653     -6892.3618024327 -7.80E-04
     7 OT DIIS     0.80E-01   12.6     0.00001321     -6892.3618640449 -6.16E-05
     8 OT SD       0.80E-01   12.4     0.00001705     -6892.3618923424 -2.83E-05
     9 OT DIIS     0.80E-01   12.6     0.00003024     -6892.3618879277  4.41E-06
    10 OT DIIS     0.80E-01   12.5     0.00000822     -6892.3619008553 -1.29E-05
    11 OT SD       0.80E-01   12.8     0.00000715     -6892.3619910329 -9.02E-05
    12 OT DIIS     0.80E-01   12.9     0.00001552     -6892.3619988203 -7.79E-06
    13 OT DIIS     0.80E-01   13.0     0.00000637     -6892.3620418854 -4.31E-05
    14 OT DIIS     0.80E-01   13.1     0.00000560     -6892.3620457085 -3.82E-06
    15 OT DIIS     0.80E-01   12.8     0.00000575     -6892.3620735706 -2.79E-05
    16 OT DIIS     0.80E-01   12.7     0.00000553     -6892.3621108266 -3.73E-05
    17 OT DIIS     0.80E-01   12.9     0.00000624     -6892.3621579772 -4.72E-05
    18 OT SD       0.80E-01   13.0     0.00000563     -6892.3622222770 -6.43E-05
    19 OT DIIS     0.80E-01   13.0     0.00001599     -6892.3622248204 -2.54E-06
    20 OT DIIS     0.80E-01   13.0     0.00000576     -6892.3623072888 -8.25E-05
    21 OT DIIS     0.80E-01   13.0     0.00000577     -6892.3623605813 -5.33E-05
    22 OT DIIS     0.80E-01   13.0     0.00000527     -6892.3624022374 -4.17E-05
    23 OT SD       0.80E-01   13.1     0.00000540     -6892.3624019402  2.97E-07
    24 OT DIIS     0.80E-01   13.3     0.00001704     -6892.3624009869  9.53E-07
    25 OT SD       0.80E-01   13.1     0.00000554     -6892.3625236965 -1.23E-04
    26 OT DIIS     0.80E-01   13.3     0.00001612     -6892.3625228134  8.83E-07
    27 OT DIIS     0.80E-01   13.6     0.00000491     -6892.3625143464  8.47E-06
    28 OT SD       0.80E-01   13.3     0.00000558     -6892.3625598477 -4.55E-05
    29 OT DIIS     0.80E-01   13.4     0.00002270     -6892.3625505309  9.32E-06
    30 OT SD       0.80E-01   13.0     0.00000491     -6892.3626426295 -9.21E-05
    31 OT DIIS     0.80E-01   13.3     0.00001237     -6892.3626441191 -1.49E-06
    32 OT SD       0.80E-01   13.5     0.00000455     -6892.3626947832 -5.07E-05
    33 OT DIIS     0.80E-01   13.4     0.00001285     -6892.3626960618 -1.28E-06
    34 OT DIIS     0.80E-01   13.5     0.00000454     -6892.3627207904 -2.47E-05
    35 OT DIIS     0.80E-01   13.1     0.00000418     -6892.3627902905 -6.95E-05
    36 OT SD       0.80E-01   13.5     0.00000406     -6892.3628332817 -4.30E-05
    37 OT SD       0.80E-01   13.0     0.00000554     -6892.3628390509 -5.77E-06
    38 OT DIIS     0.80E-01   13.2     0.00002092     -6892.3628296385  9.41E-06
    39 OT DIIS     0.80E-01   12.8     0.00000384     -6892.3628592750 -2.96E-05
    40 OT DIIS     0.80E-01   13.1     0.00000364     -6892.3628594950 -2.20E-07
    41 OT DIIS     0.80E-01   12.9     0.00000383     -6892.3628893396 -2.98E-05
    42 OT DIIS     0.80E-01   13.5     0.00000462     -6892.3629100283 -2.07E-05
    43 OT DIIS     0.80E-01   13.0     0.00000381     -6892.3629223766 -1.23E-05
    44 OT DIIS     0.80E-01   13.4     0.00000361     -6892.3629243662 -1.99E-06
    45 OT DIIS     0.80E-01   13.3     0.00000465     -6892.3629833205 -5.90E-05
    46 OT SD       0.80E-01   13.1     0.00000466     -6892.3630629925 -7.97E-05
    47 OT SD       0.80E-01   13.3     0.00001371     -6892.3630619419  1.05E-06
    48 OT DIIS     0.80E-01   13.1     0.00007687     -6892.3628649254  1.97E-04
    49 OT DIIS     0.80E-01   13.2     0.00000356     -6892.3630914934 -2.27E-04
    50 OT DIIS     0.80E-01   13.0     0.00000411     -6892.3630964434 -4.95E-06
    51 OT SD       0.80E-01   13.2     0.00000365     -6892.3631143273 -1.79E-05
    52 OT DIIS     0.80E-01   13.0     0.00000951     -6892.3631153852 -1.06E-06
    53 OT SD       0.80E-01   13.2     0.00000355     -6892.3631496601 -3.43E-05
    54 OT DIIS     0.80E-01   13.6     0.00001026     -6892.3631500216 -3.61E-07
    55 OT DIIS     0.80E-01   13.4     0.00000357     -6892.3631722612 -2.22E-05
    56 OT SD       0.80E-01   13.3     0.00000408     -6892.3632520204 -7.98E-05
    57 OT SD       0.80E-01   14.0     0.00001138     -6892.3632512366  7.84E-07
    58 OT DIIS     0.80E-01   13.4     0.00006082     -6892.3631267811  1.24E-04
    59 OT DIIS     0.80E-01   13.4     0.00000311     -6892.3632729861 -1.46E-04
    60 OT SD       0.80E-01   13.4     0.00000399     -6892.3633358888 -6.29E-05
    61 OT SD       0.80E-01   13.4     0.00000855     -6892.3633368984 -1.01E-06
    62 OT DIIS     0.80E-01   13.5     0.00003902     -6892.3632831006  5.38E-05
    63 OT SD       0.80E-01   13.6     0.00000310     -6892.3633559783 -7.29E-05
    64 OT DIIS     0.80E-01   13.7     0.00000897     -6892.3633562925 -3.14E-07
    65 OT DIIS     0.80E-01   13.4     0.00000280     -6892.3633603964 -4.10E-06
    66 OT SD       0.80E-01   13.1     0.00000326     -6892.3634172398 -5.68E-05
    67 OT SD       0.80E-01   13.2     0.00000813     -6892.3634179311 -6.91E-07
    68 OT DIIS     0.80E-01   13.0     0.00004098     -6892.3633607579  5.72E-05
    69 OT DIIS     0.80E-01   13.4     0.00000266     -6892.3634199641 -5.92E-05
    70 OT SD       0.80E-01   13.2     0.00000324     -6892.3634619473 -4.20E-05
    71 OT DIIS     0.80E-01   13.1     0.00000950     -6892.3634613556  5.92E-07
    72 OT DIIS     0.80E-01   13.4     0.00000267     -6892.3634617607 -4.05E-07
    73 OT SD       0.80E-01   13.2     0.00000352     -6892.3635260097 -6.42E-05
    74 OT SD       0.80E-01   13.7     0.00000960     -6892.3635251641  8.46E-07
    75 OT DIIS     0.80E-01   13.4     0.00004695     -6892.3634460796  7.91E-05
    76 OT DIIS     0.80E-01   13.1     0.00000280     -6892.3635276724 -8.16E-05
    77 OT SD       0.80E-01   13.6     0.00000266     -6892.3635370035 -9.33E-06
    78 OT SD       0.80E-01   13.3     0.00000838     -6892.3635368678  1.36E-07
    79 OT DIIS     0.80E-01   13.3     0.00004610     -6892.3634654303  7.14E-05
    80 OT DIIS     0.80E-01   13.3     0.00000227     -6892.3635452644 -7.98E-05
    81 OT DIIS     0.80E-01   13.5     0.00000217     -6892.3635455844 -3.20E-07
    82 OT DIIS     0.80E-01   13.3     0.00000227     -6892.3635519883 -6.40E-06
    83 OT DIIS     0.80E-01   14.2     0.00000220     -6892.3635759160 -2.39E-05
    84 OT SD       0.80E-01   14.1     0.00000222     -6892.3635828398 -6.92E-06
    85 OT DIIS     0.80E-01   13.1     0.00000526     -6892.3635839015 -1.06E-06
    86 OT DIIS     0.80E-01   13.0     0.00000214     -6892.3635906782 -6.78E-06
    87 OT DIIS     0.80E-01   13.4     0.00000205     -6892.3636015210 -1.08E-05
    88 OT DIIS     0.80E-01   13.2     0.00000208     -6892.3636024847 -9.64E-07
    89 OT DIIS     0.80E-01   13.0     0.00000203     -6892.3636138717 -1.14E-05
    90 OT DIIS     0.80E-01   13.3     0.00000209     -6892.3636239567 -1.01E-05
    91 OT SD       0.80E-01   13.7     0.00000204     -6892.3636438843 -1.99E-05
    92 OT SD       0.80E-01   14.7     0.00000328     -6892.3636454102 -1.53E-06
    93 OT DIIS     0.80E-01   15.5     0.00001448     -6892.3636398595  5.55E-06
    94 OT DIIS     0.80E-01   14.8     0.00000201     -6892.3636687540 -2.89E-05
    95 OT DIIS     0.80E-01   13.8     0.00000220     -6892.3636881658 -1.94E-05
    96 OT DIIS     0.80E-01   13.7     0.00000215     -6892.3637033934 -1.52E-05
    97 OT DIIS     0.80E-01   13.6     0.00000226     -6892.3637142397 -1.08E-05
    98 OT SD       0.80E-01   13.2     0.00000227     -6892.3637308757 -1.66E-05
    99 OT SD       0.80E-01   13.2     0.00000484     -6892.3637317036 -8.28E-07
   100 OT DIIS     0.80E-01   13.7     0.00002278     -6892.3637145675  1.71E-05

  Leaving inner SCF loop after reaching   100 steps.


  Electronic density on regular grids:      -2432.0000000002       -0.0000000002
  Core density on regular grids:             2431.9999999988       -0.0000000012
  Total charge density on r-space grids:       -0.0000000014
  Total charge density g-space grids:          -0.0000000014

  Overlap energy of the core charge distribution:               0.02768607134069
  Self energy of the core charge distribution:             -16017.19408509233290
  Core Hamiltonian energy:                                   4328.33450961858398
  Hartree energy:                                            6126.80986613918139
  Exchange-correlation energy:                              -1328.59123565658206
  Dispersion energy:                                           -1.75045564768295

  Total energy:                                             -6892.36371456749293

  outer SCF iter =    3 RMS gradient =   0.23E-04 energy =      -6892.3637145675

  ----------------------------------- OT ---------------------------------------
  Minimizer      : DIIS                : direct inversion
                                         in the iterative subspace
                                         using   7 DIIS vectors
                                         safer DIIS on
  Preconditioner : FULL_SINGLE_INVERSE : inversion of 
                                         H + eS - 2*(Sc)(c^T*H*c+const)(Sc)^T
  Precond_solver : DEFAULT
  stepsize       :    0.08000000                  energy_gap     :    0.08000000
  eps_taylor     :   0.10000E-15                  max_taylor     :             4
  ----------------------------------- OT ---------------------------------------

  Step     Update method      Time    Convergence         Total energy    Change
  ------------------------------------------------------------------------------
     1 OT DIIS     0.80E-01   38.1     0.00000194     -6892.3637346876 -2.01E-05
     2 OT DIIS     0.80E-01   12.7     0.00000361     -6892.3637359753 -1.29E-06
     3 OT DIIS     0.80E-01   12.6     0.00000193     -6892.3637365902 -6.15E-07
     4 OT DIIS     0.80E-01   12.9     0.00000184     -6892.3637370661 -4.76E-07
     5 OT DIIS     0.80E-01   12.5     0.00000189     -6892.3637389938 -1.93E-06
     6 OT DIIS     0.80E-01   12.9     0.00000185     -6892.3637434343 -4.44E-06
     7 OT DIIS     0.80E-01   12.6     0.00000182     -6892.3637478674 -4.43E-06
     8 OT DIIS     0.80E-01   12.7     0.00000182     -6892.3637511722 -3.30E-06
     9 OT DIIS     0.80E-01   12.8     0.00000180     -6892.3637547457 -3.57E-06
    10 OT DIIS     0.80E-01   12.6     0.00000180     -6892.3637574364 -2.69E-06
    11 OT DIIS     0.80E-01   12.6     0.00000178     -6892.3637611201 -3.68E-06
    12 OT DIIS     0.80E-01   12.6     0.00000181     -6892.3637687544 -7.63E-06
    13 OT DIIS     0.80E-01   12.6     0.00000179     -6892.3637784472 -9.69E-06
    14 OT DIIS     0.80E-01   12.5     0.00000178     -6892.3637878217 -9.37E-06
    15 OT DIIS     0.80E-01   12.5     0.00000177     -6892.3637939729 -6.15E-06
    16 OT SD       0.80E-01   12.6     0.00000185     -6892.3637947105 -7.38E-07
    17 OT DIIS     0.80E-01   12.4     0.00000411     -6892.3637956688 -9.58E-07
    18 OT DIIS     0.80E-01   12.6     0.00000185     -6892.3638149090 -1.92E-05
    19 OT DIIS     0.80E-01   12.5     0.00000185     -6892.3638252230 -1.03E-05
    20 OT SD       0.80E-01   12.5     0.00000188     -6892.3638253831 -1.60E-07
    21 OT DIIS     0.80E-01   12.7     0.00000448     -6892.3638261419 -7.59E-07
    22 OT DIIS     0.80E-01   12.6     0.00000188     -6892.3638283122 -2.17E-06
    23 OT SD       0.80E-01   12.6     0.00000199     -6892.3638582126 -2.99E-05
    24 OT DIIS     0.80E-01   12.5     0.00000417     -6892.3638589381 -7.26E-07
    25 OT SD       0.80E-01   12.7     0.00000174     -6892.3638634927 -4.55E-06
    26 OT DIIS     0.80E-01   12.6     0.00000314     -6892.3638645082 -1.02E-06
    27 OT SD       0.80E-01   12.3     0.00000182     -6892.3638876342 -2.31E-05
    28 OT DIIS     0.80E-01   12.5     0.00000372     -6892.3638884771 -8.43E-07
    29 OT DIIS     0.80E-01   12.5     0.00000180     -6892.3639018292 -1.34E-05
    30 OT SD       0.80E-01   12.7     0.00000203     -6892.3639235914 -2.18E-05
    31 OT SD       0.80E-01   12.6     0.00000477     -6892.3639240119 -4.20E-07
    32 OT DIIS     0.80E-01   12.6     0.00002363     -6892.3639055075  1.85E-05
    33 OT DIIS     0.80E-01   12.5     0.00000185     -6892.3639471441 -4.16E-05
    34 OT SD       0.80E-01   12.4     0.00000172     -6892.3639513703 -4.23E-06
    35 OT DIIS     0.80E-01   12.4     0.00000327     -6892.3639521862 -8.16E-07
    36 OT DIIS     0.80E-01   12.5     0.00000236     -6892.3639972207 -4.50E-05
    37 OT SD       0.80E-01   12.6     0.00000367     -6892.3640197648 -2.25E-05
    38 OT SD       0.80E-01   12.5     0.00000771     -6892.3640182169  1.55E-06
    39 OT DIIS     0.80E-01   12.6     0.00002477     -6892.3639911148  2.71E-05
    40 OT DIIS     0.80E-01   12.6     0.00000172     -6892.3639742505  1.69E-05
    41 OT SD       0.80E-01   12.7     0.00000163     -6892.3640035335 -2.93E-05
    42 OT DIIS     0.80E-01   12.6     0.00000429     -6892.3640039818 -4.48E-07
    43 OT DIIS     0.80E-01   12.5     0.00000154     -6892.3640047908 -8.09E-07
    44 OT DIIS     0.80E-01   12.6     0.00000156     -6892.3640176402 -1.28E-05
    45 OT SD       0.80E-01   12.6     0.00000149     -6892.3640211663 -3.53E-06
    46 OT DIIS     0.80E-01   12.7     0.00000243     -6892.3640219715 -8.05E-07
    47 OT DIIS     0.80E-01   13.0     0.00000171     -6892.3640489297 -2.70E-05
    48 OT SD       0.80E-01   13.1     0.00000235     -6892.3640683283 -1.94E-05
    49 OT SD       0.80E-01   13.0     0.00000681     -6892.3640674466  8.82E-07
    50 OT DIIS     0.80E-01   13.0     0.00003360     -6892.3640269697  4.05E-05
    51 OT DIIS     0.80E-01   13.1     0.00000146     -6892.3640616282 -3.47E-05
    52 OT SD       0.80E-01   13.2     0.00000222     -6892.3640930752 -3.14E-05
    53 OT DIIS     0.80E-01   12.9     0.00000634     -6892.3640923929  6.82E-07
    54 OT DIIS     0.80E-01   13.2     0.00000152     -6892.3640917239  6.69E-07
    55 OT SD       0.80E-01   13.1     0.00000217     -6892.3641267576 -3.50E-05
    56 OT SD       0.80E-01   13.2     0.00000560     -6892.3641263839  3.74E-07
    57 OT DIIS     0.80E-01   13.2     0.00002703     -6892.3641006801  2.57E-05
    58 OT DIIS     0.80E-01   13.1     0.00000172     -6892.3641224490 -2.18E-05
    59 OT SD       0.80E-01   13.1     0.00000173     -6892.3641294263 -6.98E-06
    60 OT SD       0.80E-01   13.3     0.00000667     -6892.3641286263  8.00E-07
    61 OT DIIS     0.80E-01   13.3     0.00003724     -6892.3640810560  4.76E-05
    62 OT SD       0.80E-01   13.5     0.00000127     -6892.3641322339 -5.12E-05
    63 OT DIIS     0.80E-01   13.2     0.00000236     -6892.3641327992 -5.65E-07
    64 OT DIIS     0.80E-01   13.3     0.00000130     -6892.3641347907 -1.99E-06
    65 OT DIIS     0.80E-01   13.5     0.00000132     -6892.3641383181 -3.53E-06
    66 OT SD       0.80E-01   13.3     0.00000121     -6892.3641410630 -2.74E-06
    67 OT DIIS     0.80E-01   13.3     0.00000195     -6892.3641416534 -5.90E-07
    68 OT DIIS     0.80E-01   13.3     0.00000119     -6892.3641460957 -4.44E-06
    69 OT DIIS     0.80E-01   13.3     0.00000118     -6892.3641486758 -2.58E-06
    70 OT DIIS     0.80E-01   13.2     0.00000118     -6892.3641508883 -2.21E-06
    71 OT DIIS     0.80E-01   13.3     0.00000120     -6892.3641557499 -4.86E-06
    72 OT DIIS     0.80E-01   13.4     0.00000119     -6892.3641623110 -6.56E-06
    73 OT DIIS     0.80E-01   13.3     0.00000118     -6892.3641665955 -4.28E-06
    74 OT DIIS     0.80E-01   13.3     0.00000117     -6892.3641731356 -6.54E-06
    75 OT SD       0.80E-01   13.0     0.00000114     -6892.3641755230 -2.39E-06
    76 OT DIIS     0.80E-01   13.1     0.00000143     -6892.3641761025 -5.80E-07
    77 OT DIIS     0.80E-01   13.1     0.00000117     -6892.3641849712 -8.87E-06
    78 OT DIIS     0.80E-01   13.3     0.00000126     -6892.3641948141 -9.84E-06
    79 OT DIIS     0.80E-01   13.5     0.00000121     -6892.3642017303 -6.92E-06
    80 OT DIIS     0.80E-01   13.1     0.00000120     -6892.3642048267 -3.10E-06
    81 OT SD       0.80E-01   13.3     0.00000120     -6892.3642085057 -3.68E-06
    82 OT DIIS     0.80E-01   13.2     0.00000264     -6892.3642088590 -3.53E-07
    83 OT DIIS     0.80E-01   13.3     0.00000126     -6892.3642199149 -1.11E-05
    84 OT DIIS     0.80E-01   13.5     0.00000121     -6892.3642239655 -4.05E-06
    85 OT SD       0.80E-01   13.4     0.00000120     -6892.3642300778 -6.11E-06
    86 OT SD       0.80E-01   13.5     0.00000177     -6892.3642305339 -4.56E-07
    87 OT DIIS     0.80E-01   13.6     0.00000599     -6892.3642296575  8.76E-07
    88 OT SD       0.80E-01   13.3     0.00000109     -6892.3642336934 -4.04E-06
    89 OT DIIS     0.80E-01   13.2     0.00000178     -6892.3642341320 -4.39E-07
    90 OT DIIS     0.80E-01   13.6     0.00000112     -6892.3642381601 -4.03E-06
    91 OT SD       0.80E-01   13.2     0.00000126     -6892.3642488967 -1.07E-05
    92 OT DIIS     0.80E-01   13.5     0.00000414     -6892.3642488175  7.91E-08
    93 OT DIIS     0.80E-01   13.2     0.00000106     -6892.3642494448 -6.27E-07
    94 OT DIIS     0.80E-01   13.1     0.00000123     -6892.3642652652 -1.58E-05
    95 OT SD       0.80E-01   13.2     0.00000123     -6892.3642701856 -4.92E-06
    96 OT SD       0.80E-01   13.2     0.00000284     -6892.3642703549 -1.69E-07
    97 OT DIIS     0.80E-01   13.0     0.00001333     -6892.3642641986  6.16E-06
    98 OT SD       0.80E-01   13.4     0.00000114     -6892.3642804229 -1.62E-05
    99 OT DIIS     0.80E-01   13.3     0.00000252     -6892.3642806244 -2.02E-07
   100 OT DIIS     0.80E-01   13.4     0.00000115     -6892.3642909071 -1.03E-05

  Leaving inner SCF loop after reaching   100 steps.


  Electronic density on regular grids:      -2432.0000000003       -0.0000000003
  Core density on regular grids:             2431.9999999988       -0.0000000012
  Total charge density on r-space grids:       -0.0000000014
  Total charge density g-space grids:          -0.0000000014

  Overlap energy of the core charge distribution:               0.02768607134069
  Self energy of the core charge distribution:             -16017.19408509233290
  Core Hamiltonian energy:                                   4328.32363255715973
  Hartree energy:                                            6126.81752055178185
  Exchange-correlation energy:                              -1328.58858934734189
  Dispersion energy:                                           -1.75045564768295

  Total energy:                                             -6892.36429090707679

  outer SCF iter =    4 RMS gradient =   0.12E-05 energy =      -6892.3642909071

  ----------------------------------- OT ---------------------------------------
  Minimizer      : DIIS                : direct inversion
                                         in the iterative subspace
                                         using   7 DIIS vectors
                                         safer DIIS on
  Preconditioner : FULL_SINGLE_INVERSE : inversion of 
                                         H + eS - 2*(Sc)(c^T*H*c+const)(Sc)^T
  Precond_solver : DEFAULT
  stepsize       :    0.08000000                  energy_gap     :    0.08000000
  eps_taylor     :   0.10000E-15                  max_taylor     :             4
  ----------------------------------- OT ---------------------------------------

  Step     Update method      Time    Convergence         Total energy    Change
  ------------------------------------------------------------------------------
     1 OT DIIS     0.80E-01   34.4     0.00000113     -6892.3642974224 -6.52E-06
     2 OT DIIS     0.80E-01   12.4     0.00000206     -6892.3642977270 -3.05E-07
     3 OT DIIS     0.80E-01   12.6     0.00000142     -6892.3642979364 -2.09E-07
     4 OT DIIS     0.80E-01   13.0     0.00000098     -6892.3642981198 -1.83E-07

  *** SCF run converged in     4 steps ***


  Electronic density on regular grids:      -2432.0000000002       -0.0000000002
  Core density on regular grids:             2431.9999999988       -0.0000000012
  Total charge density on r-space grids:       -0.0000000014
  Total charge density g-space grids:          -0.0000000014

  Overlap energy of the core charge distribution:               0.02768607134069
  Self energy of the core charge distribution:             -16017.19408509233290
  Core Hamiltonian energy:                                   4328.32394293507059
  Hartree energy:                                            6126.81726258165781
  Exchange-correlation energy:                              -1328.58864896787077
  Dispersion energy:                                           -1.75045564768295

  Total energy:                                             -6892.36429811981816

  outer SCF iter =    5 RMS gradient =   0.98E-06 energy =      -6892.3642981198
  outer SCF loop converged in   5 iterations or  404 steps


 ENERGY| Total FORCE_EVAL ( QS ) energy [hartree]          -6892.364298308420985

 Number of electrons:                                                       2432
 Number of occupied orbitals:                                               1216
 Number of molecular orbitals:                                              1216

 Number of orbital functions:                                               4983
 Number of independent orbital functions:                                   4983

 Extrapolation method: ASPC


 SCF WAVEFUNCTION OPTIMIZATION

  ----------------------------------- OT ---------------------------------------
  Minimizer      : DIIS                : direct inversion
                                         in the iterative subspace
                                         using   7 DIIS vectors
                                         safer DIIS on
  Preconditioner : FULL_SINGLE_INVERSE : inversion of 
                                         H + eS - 2*(Sc)(c^T*H*c+const)(Sc)^T
  Precond_solver : DEFAULT
  stepsize       :    0.08000000                  energy_gap     :    0.08000000
  eps_taylor     :   0.10000E-15                  max_taylor     :             4
  ----------------------------------- OT ---------------------------------------

  Step     Update method      Time    Convergence         Total energy    Change
  ------------------------------------------------------------------------------
     1 OT DIIS     0.80E-01   18.5     0.00560605     -6881.0359160009 -6.88E+03
     2 OT DIIS     0.80E-01   13.5     0.00436823     -6893.9635194759 -1.29E+01
     3 OT DIIS     0.80E-01   13.4     0.00312308     -6902.0273209810 -8.06E+00
     4 OT DIIS     0.80E-01   13.8     0.00203087     -6904.7580489042 -2.73E+00
     5 OT DIIS     0.80E-01   13.4     0.00126427     -6905.4683866160 -7.10E-01
     6 OT DIIS     0.80E-01   13.4     0.00110268     -6905.7191750248 -2.51E-01
     7 OT DIIS     0.80E-01   13.6     0.00074658     -6905.8939238524 -1.75E-01
     8 OT DIIS     0.80E-01   13.5     0.00046545     -6906.0297183485 -1.36E-01
     9 OT DIIS     0.80E-01   13.5     0.00035479     -6906.1110727607 -8.14E-02
    10 OT DIIS     0.80E-01   13.4     0.00031044     -6906.1576897651 -4.66E-02
    11 OT DIIS     0.80E-01   13.2     0.00022426     -6906.1888732088 -3.12E-02
    12 OT DIIS     0.80E-01   13.6     0.00018998     -6906.2239206108 -3.50E-02
    13 OT DIIS     0.80E-01   13.0     0.00019359     -6906.2455163355 -2.16E-02
    14 OT DIIS     0.80E-01   13.4     0.00016550     -6906.2692895704 -2.38E-02
    15 OT DIIS     0.80E-01   13.4     0.00015730     -6906.2847244987 -1.54E-02
    16 OT DIIS     0.80E-01   13.4     0.00012013     -6906.2954498441 -1.07E-02
    17 OT DIIS     0.80E-01   13.0     0.00010073     -6906.3039859911 -8.54E-03
    18 OT DIIS     0.80E-01   13.5     0.00009683     -6906.3111371486 -7.15E-03
    19 OT DIIS     0.80E-01   13.3     0.00008467     -6906.3167396450 -5.60E-03
    20 OT DIIS     0.80E-01   13.2     0.00007097     -6906.3229214969 -6.18E-03
    21 OT DIIS     0.80E-01   13.4     0.00007116     -6906.3263206397 -3.40E-03
    22 OT DIIS     0.80E-01   13.1     0.00006027     -6906.3288502591 -2.53E-03
    23 OT DIIS     0.80E-01   13.0     0.00005782     -6906.3311851634 -2.33E-03
    24 OT DIIS     0.80E-01   13.4     0.00005476     -6906.3331326315 -1.95E-03
    25 OT DIIS     0.80E-01   13.2     0.00004920     -6906.3352985982 -2.17E-03
    26 OT DIIS     0.80E-01   13.1     0.00004774     -6906.3374493549 -2.15E-03
    27 OT DIIS     0.80E-01   13.5     0.00004334     -6906.3388947664 -1.45E-03
    28 OT DIIS     0.80E-01   13.5     0.00003930     -6906.3404562017 -1.56E-03
    29 OT DIIS     0.80E-01   13.0     0.00003904     -6906.3417779955 -1.32E-03
    30 OT DIIS     0.80E-01   13.0     0.00003763     -6906.3429498814 -1.17E-03
    31 OT DIIS     0.80E-01   13.1     0.00003667     -6906.3444772959 -1.53E-03
    32 OT DIIS     0.80E-01   13.3     0.00003589     -6906.3456981389 -1.22E-03
    33 OT DIIS     0.80E-01   13.4     0.00003254     -6906.3468448515 -1.15E-03
    34 OT DIIS     0.80E-01   13.3     0.00003144     -6906.3479046008 -1.06E-03
    35 OT DIIS     0.80E-01   13.3     0.00003036     -6906.3487132241 -8.09E-04
    36 OT DIIS     0.80E-01   13.3     0.00002886     -6906.3498109161 -1.10E-03
    37 OT DIIS     0.80E-01   13.0     0.00002908     -6906.3510676178 -1.26E-03
    38 OT DIIS     0.80E-01   13.3     0.00002796     -6906.3519616951 -8.94E-04
    39 OT DIIS     0.80E-01   13.2     0.00002663     -6906.3529480146 -9.86E-04
    40 OT DIIS     0.80E-01   13.0     0.00002595     -6906.3536190982 -6.71E-04
    41 OT DIIS     0.80E-01   13.4     0.00002486     -6906.3543200862 -7.01E-04
    42 OT DIIS     0.80E-01   13.1     0.00002474     -6906.3553542502 -1.03E-03
    43 OT DIIS     0.80E-01   13.3     0.00002459     -6906.3562204624 -8.66E-04
    44 OT DIIS     0.80E-01   13.2     0.00002274     -6906.3571780162 -9.58E-04
    45 OT DIIS     0.80E-01   13.3     0.00002185     -6906.3578217653 -6.44E-04
    46 OT DIIS     0.80E-01   13.0     0.00002092     -6906.3581109530 -2.89E-04
    47 OT DIIS     0.80E-01   13.2     0.00002081     -6906.3588431821 -7.32E-04
    48 OT DIIS     0.80E-01   13.1     0.00002099     -6906.3597161905 -8.73E-04
    49 OT DIIS     0.80E-01   13.4     0.00002000     -6906.3603801117 -6.64E-04
    50 OT DIIS     0.80E-01   13.3     0.00001950     -6906.3613125814 -9.32E-04
    51 OT DIIS     0.80E-01   13.8     0.00001869     -6906.3615764024 -2.64E-04
    52 OT DIIS     0.80E-01   13.3     0.00001792     -6906.3616213772 -4.50E-05
    53 OT DIIS     0.80E-01   13.2     0.00001753     -6906.3618175645 -1.96E-04
    54 OT DIIS     0.80E-01   13.0     0.00001515     -6906.3624587987 -6.41E-04
    55 OT DIIS     0.80E-01   13.0     0.00001533     -6906.3630961679 -6.37E-04
    56 OT DIIS     0.80E-01   13.5     0.00001393     -6906.3638232121 -7.27E-04
    57 OT DIIS     0.80E-01   13.4     0.00001427     -6906.3639600179 -1.37E-04
    58 OT DIIS     0.80E-01   13.3     0.00001259     -6906.3642856526 -3.26E-04
    59 OT DIIS     0.80E-01   12.9     0.00001300     -6906.3643343971 -4.87E-05
    60 OT DIIS     0.80E-01   13.2     0.00001024     -6906.3644682268 -1.34E-04
    61 OT DIIS     0.80E-01   13.3     0.00001046     -6906.3647019763 -2.34E-04
    62 OT DIIS     0.80E-01   13.3     0.00000934     -6906.3648888519 -1.87E-04
    63 OT DIIS     0.80E-01   13.2     0.00000902     -6906.3650664474 -1.78E-04
    64 OT DIIS     0.80E-01   13.1     0.00000826     -6906.3651604007 -9.40E-05
    65 OT DIIS     0.80E-01   13.6     0.00000840     -6906.3652047932 -4.44E-05
    66 OT DIIS     0.80E-01   13.4     0.00000784     -6906.3652748531 -7.01E-05
    67 OT DIIS     0.80E-01   13.2     0.00000791     -6906.3654203408 -1.45E-04
    68 OT DIIS     0.80E-01   13.2     0.00000745     -6906.3654902839 -6.99E-05
    69 OT DIIS     0.80E-01   13.0     0.00000676     -6906.3656269773 -1.37E-04
    70 OT DIIS     0.80E-01   13.0     0.00000638     -6906.3656798918 -5.29E-05
    71 OT DIIS     0.80E-01   13.2     0.00000618     -6906.3657293340 -4.94E-05
    72 OT DIIS     0.80E-01   13.3     0.00000612     -6906.3657921992 -6.29E-05
    73 OT DIIS     0.80E-01   13.3     0.00000640     -6906.3658632731 -7.11E-05
    74 OT DIIS     0.80E-01   13.2     0.00000612     -6906.3659245639 -6.13E-05
    75 OT DIIS     0.80E-01   13.4     0.00000574     -6906.3660342190 -1.10E-04
    76 OT DIIS     0.80E-01   13.4     0.00000537     -6906.3660546031 -2.04E-05
    77 OT DIIS     0.80E-01   13.4     0.00000509     -6906.3661130301 -5.84E-05
    78 OT DIIS     0.80E-01   13.1     0.00000504     -6906.3661437760 -3.07E-05
    79 OT DIIS     0.80E-01   13.1     0.00000500     -6906.3662052018 -6.14E-05
    80 OT DIIS     0.80E-01   13.1     0.00000492     -6906.3662701510 -6.49E-05
    81 OT DIIS     0.80E-01   13.3     0.00000491     -6906.3663324845 -6.23E-05
    82 OT DIIS     0.80E-01   13.2     0.00000459     -6906.3663597956 -2.73E-05
    83 OT DIIS     0.80E-01   13.2     0.00000440     -6906.3664049557 -4.52E-05
    84 OT DIIS     0.80E-01   13.1     0.00000438     -6906.3664199579 -1.50E-05
    85 OT DIIS     0.80E-01   13.3     0.00000427     -6906.3664796356 -5.97E-05
    86 OT DIIS     0.80E-01   13.6     0.00000431     -6906.3665168651 -3.72E-05
    87 OT DIIS     0.80E-01   13.1     0.00000411     -6906.3665687243 -5.19E-05
    88 OT DIIS     0.80E-01   13.1     0.00000393     -6906.3666026127 -3.39E-05
    89 OT DIIS     0.80E-01   13.1     0.00000382     -6906.3666245727 -2.20E-05
    90 OT DIIS     0.80E-01   13.1     0.00000383     -6906.3666419939 -1.74E-05
    91 OT DIIS     0.80E-01   12.8     0.00000377     -6906.3666906705 -4.87E-05
    92 OT DIIS     0.80E-01   12.9     0.00000391     -6906.3667122708 -2.16E-05
    93 OT DIIS     0.80E-01   13.3     0.00000360     -6906.3667678396 -5.56E-05
    94 OT DIIS     0.80E-01   13.2     0.00000351     -6906.3667965468 -2.87E-05
    95 OT DIIS     0.80E-01   13.1     0.00000336     -6906.3668157529 -1.92E-05
    96 OT DIIS     0.80E-01   13.1     0.00000330     -6906.3668291139 -1.34E-05
    97 OT DIIS     0.80E-01   13.2     0.00000333     -6906.3668636973 -3.46E-05
    98 OT DIIS     0.80E-01   13.2     0.00000338     -6906.3668834893 -1.98E-05
    99 OT DIIS     0.80E-01   13.6     0.00000317     -6906.3669206928 -3.72E-05
   100 OT DIIS     0.80E-01   13.1     0.00000327     -6906.3669645506 -4.39E-05

  Leaving inner SCF loop after reaching   100 steps.


  Electronic density on regular grids:      -2432.0000000151       -0.0000000151
  Core density on regular grids:             2431.9999999988       -0.0000000012
  Total charge density on r-space grids:       -0.0000000163
  Total charge density g-space grids:          -0.0000000163

  Overlap energy of the core charge distribution:               0.08420507499861
  Self energy of the core charge distribution:             -16017.19408509233290
  Core Hamiltonian energy:                                   4297.18628173862089
  Hartree energy:                                            6141.62805246219705
  Exchange-correlation energy:                              -1326.32218884618101
  Dispersion energy:                                           -1.74922988786246

  Total energy:                                             -6906.36696455056062

  outer SCF iter =    1 RMS gradient =   0.33E-05 energy =      -6906.3669645506

  ----------------------------------- OT ---------------------------------------
  Minimizer      : DIIS                : direct inversion
                                         in the iterative subspace
                                         using   7 DIIS vectors
                                         safer DIIS on
  Preconditioner : FULL_SINGLE_INVERSE : inversion of 
                                         H + eS - 2*(Sc)(c^T*H*c+const)(Sc)^T
  Precond_solver : DEFAULT
  stepsize       :    0.08000000                  energy_gap     :    0.08000000
  eps_taylor     :   0.10000E-15                  max_taylor     :             4
  ----------------------------------- OT ---------------------------------------

  Step     Update method      Time    Convergence         Total energy    Change
  ------------------------------------------------------------------------------
     1 OT DIIS     0.80E-01   36.2     0.00001188     -6906.3669883394 -2.38E-05
     2 OT DIIS     0.80E-01   12.7     0.00001047     -6906.3670500709 -6.17E-05
     3 OT DIIS     0.80E-01   12.9     0.00001574     -6906.3670960530 -4.60E-05
     4 OT DIIS     0.80E-01   12.8     0.00001173     -6906.3671587853 -6.27E-05
     5 OT DIIS     0.80E-01   12.6     0.00000939     -6906.3671993430 -4.06E-05
     6 OT DIIS     0.80E-01   12.7     0.00000824     -6906.3672298825 -3.05E-05
     7 OT DIIS     0.80E-01   12.7     0.00000708     -6906.3672628071 -3.29E-05
     8 OT DIIS     0.80E-01   12.6     0.00000679     -6906.3673154520 -5.26E-05
     9 OT DIIS     0.80E-01   12.7     0.00000749     -6906.3673316064 -1.62E-05
    10 OT DIIS     0.80E-01   12.7     0.00000669     -6906.3673648209 -3.32E-05
    11 OT DIIS     0.80E-01   12.7     0.00000510     -6906.3673932618 -2.84E-05
    12 OT DIIS     0.80E-01   12.6     0.00000494     -6906.3674098865 -1.66E-05
    13 OT DIIS     0.80E-01   12.6     0.00000512     -6906.3674229433 -1.31E-05
    14 OT DIIS     0.80E-01   12.9     0.00000482     -6906.3674350596 -1.21E-05
    15 OT DIIS     0.80E-01   12.6     0.00000474     -6906.3674480036 -1.29E-05
    16 OT DIIS     0.80E-01   12.8     0.00000462     -6906.3674655396 -1.75E-05
    17 OT DIIS     0.80E-01   12.7     0.00000441     -6906.3674849876 -1.94E-05
    18 OT DIIS     0.80E-01   12.9     0.00000441     -6906.3675003188 -1.53E-05
    19 OT DIIS     0.80E-01   12.7     0.00000429     -6906.3675167523 -1.64E-05
    20 OT DIIS     0.80E-01   12.7     0.00000432     -6906.3675370904 -2.03E-05
    21 OT DIIS     0.80E-01   12.7     0.00000436     -6906.3675591008 -2.20E-05
    22 OT DIIS     0.80E-01   12.7     0.00000417     -6906.3675963405 -3.72E-05
    23 OT DIIS     0.80E-01   12.6     0.00000419     -6906.3676251727 -2.88E-05
    24 OT DIIS     0.80E-01   12.8     0.00000407     -6906.3676550095 -2.98E-05
    25 OT DIIS     0.80E-01   12.6     0.00000400     -6906.3676879221 -3.29E-05
    26 OT DIIS     0.80E-01   12.7     0.00000411     -6906.3677231406 -3.52E-05
    27 OT DIIS     0.80E-01   12.8     0.00000397     -6906.3677699420 -4.68E-05
    28 OT DIIS     0.80E-01   12.5     0.00000385     -6906.3678049261 -3.50E-05
    29 OT DIIS     0.80E-01   12.7     0.00000376     -6906.3678301587 -2.52E-05
    30 OT DIIS     0.80E-01   12.9     0.00000369     -6906.3678672876 -3.71E-05
    31 OT DIIS     0.80E-01   13.1     0.00000388     -6906.3679155743 -4.83E-05
    32 OT DIIS     0.80E-01   13.0     0.00000372     -6906.3679562458 -4.07E-05
    33 OT DIIS     0.80E-01   13.1     0.00000358     -6906.3679822513 -2.60E-05
    34 OT DIIS     0.80E-01   13.3     0.00000335     -6906.3679860065 -3.76E-06
    35 OT DIIS     0.80E-01   13.2     0.00000418     -6906.3680166626 -3.07E-05
    36 OT DIIS     0.80E-01   13.0     0.00000383     -6906.3680430225 -2.64E-05
    37 OT DIIS     0.80E-01   12.9     0.00000375     -6906.3680759168 -3.29E-05
    38 OT DIIS     0.80E-01   13.2     0.00000360     -6906.3681025127 -2.66E-05
    39 OT DIIS     0.80E-01   13.7     0.00000411     -6906.3681173986 -1.49E-05
    40 OT SD       0.80E-01   13.0     0.00000427     -6906.3681205306 -3.13E-06
    41 OT DIIS     0.80E-01   12.9     0.00001596     -6906.3681148163  5.71E-06
    42 OT DIIS     0.80E-01   12.9     0.00000308     -6906.3681471037 -3.23E-05
    43 OT DIIS     0.80E-01   13.0     0.00000319     -6906.3681649921 -1.79E-05
    44 OT DIIS     0.80E-01   12.9     0.00000343     -6906.3681765603 -1.16E-05
    45 OT SD       0.80E-01   12.9     0.00000387     -6906.3681782204 -1.66E-06
    46 OT DIIS     0.80E-01   12.9     0.00001387     -6906.3681740631  4.16E-06
    47 OT SD       0.80E-01   13.0     0.00000348     -6906.3682228231 -4.88E-05
    48 OT DIIS     0.80E-01   12.8     0.00000980     -6906.3682220768  7.46E-07
    49 OT DIIS     0.80E-01   12.9     0.00000290     -6906.3682344593 -1.24E-05
    50 OT SD       0.80E-01   13.0     0.00000301     -6906.3682370224 -2.56E-06
    51 OT DIIS     0.80E-01   12.8     0.00000885     -6906.3682368775  1.45E-07
    52 OT SD       0.80E-01   12.8     0.00000296     -6906.3682686461 -3.18E-05
    53 OT DIIS     0.80E-01   12.9     0.00000781     -6906.3682688619 -2.16E-07
    54 OT SD       0.80E-01   12.9     0.00000271     -6906.3682925289 -2.37E-05
    55 OT DIIS     0.80E-01   12.9     0.00000631     -6906.3682933423 -8.13E-07
    56 OT DIIS     0.80E-01   12.8     0.00000260     -6906.3683104661 -1.71E-05
    57 OT DIIS     0.80E-01   13.0     0.00000299     -6906.3683508405 -4.04E-05
    58 OT SD       0.80E-01   12.8     0.00000262     -6906.3683607117 -9.87E-06
    59 OT SD       0.80E-01   13.1     0.00000439     -6906.3683620270 -1.32E-06
    60 OT DIIS     0.80E-01   12.9     0.00001431     -6906.3683551045  6.92E-06
    61 OT DIIS     0.80E-01   13.0     0.00000219     -6906.3683724326 -1.73E-05
    62 OT DIIS     0.80E-01   12.9     0.00000213     -6906.3683837320 -1.13E-05
    63 OT DIIS     0.80E-01   12.9     0.00000215     -6906.3683912459 -7.51E-06
    64 OT DIIS     0.80E-01   13.0     0.00000220     -6906.3684058535 -1.46E-05
    65 OT SD       0.80E-01   12.9     0.00000258     -6906.3684159216 -1.01E-05
    66 OT DIIS     0.80E-01   13.0     0.00000895     -6906.3684145242  1.40E-06
    67 OT DIIS     0.80E-01   12.8     0.00000234     -6906.3684352162 -2.07E-05
    68 OT SD       0.80E-01   12.8     0.00000340     -6906.3684659859 -3.08E-05
    69 OT SD       0.80E-01   12.9     0.00000733     -6906.3684653319  6.54E-07
    70 OT DIIS     0.80E-01   12.9     0.00002898     -6906.3684321228  3.32E-05
    71 OT DIIS     0.80E-01   13.0     0.00000177     -6906.3684558700 -2.37E-05
    72 OT SD       0.80E-01   12.8     0.00000198     -6906.3684684363 -1.26E-05
    73 OT DIIS     0.80E-01   12.8     0.00000541     -6906.3684685529 -1.17E-07
    74 OT DIIS     0.80E-01   12.9     0.00000196     -6906.3684755515 -7.00E-06
    75 OT DIIS     0.80E-01   12.9     0.00000183     -6906.3684821645 -6.61E-06
    76 OT DIIS     0.80E-01   12.9     0.00000180     -6906.3684826085 -4.44E-07
    77 OT DIIS     0.80E-01   12.9     0.00000204     -6906.3685033586 -2.08E-05
    78 OT DIIS     0.80E-01   12.9     0.00000166     -6906.3685091340 -5.78E-06
    79 OT SD       0.80E-01   12.8     0.00000167     -6906.3685178433 -8.71E-06
    80 OT SD       0.80E-01   12.9     0.00000331     -6906.3685183180 -4.75E-07
    81 OT DIIS     0.80E-01   12.8     0.00001471     -6906.3685109594  7.36E-06
    82 OT DIIS     0.80E-01   12.9     0.00000134     -6906.3685209102 -9.95E-06
    83 OT DIIS     0.80E-01   13.0     0.00000137     -6906.3685227338 -1.82E-06
    84 OT DIIS     0.80E-01   13.0     0.00000133     -6906.3685234456 -7.12E-07
    85 OT DIIS     0.80E-01   13.0     0.00000136     -6906.3685234697 -2.42E-08
    86 OT DIIS     0.80E-01   13.0     0.00000128     -6906.3685268966 -3.43E-06
    87 OT DIIS     0.80E-01   12.9     0.00000131     -6906.3685284213 -1.52E-06
    88 OT DIIS     0.80E-01   12.9     0.00000128     -6906.3685309976 -2.58E-06
    89 OT SD       0.80E-01   12.8     0.00000130     -6906.3685393694 -8.37E-06
    90 OT DIIS     0.80E-01   12.8     0.00000252     -6906.3685398704 -5.01E-07
    91 OT DIIS     0.80E-01   12.8     0.00000126     -6906.3685434200 -3.55E-06
    92 OT DIIS     0.80E-01   12.9     0.00000125     -6906.3685457274 -2.31E-06
    93 OT DIIS     0.80E-01   12.9     0.00000120     -6906.3685491615 -3.43E-06
    94 OT DIIS     0.80E-01   13.0     0.00000120     -6906.3685504011 -1.24E-06
    95 OT DIIS     0.80E-01   12.9     0.00000118     -6906.3685548623 -4.46E-06
    96 OT DIIS     0.80E-01   12.8     0.00000118     -6906.3685572470 -2.38E-06
    97 OT DIIS     0.80E-01   12.8     0.00000118     -6906.3685604114 -3.16E-06
    98 OT DIIS     0.80E-01   13.2     0.00000119     -6906.3685641637 -3.75E-06
    99 OT DIIS     0.80E-01   12.8     0.00000119     -6906.3685672801 -3.12E-06
   100 OT DIIS     0.80E-01   12.8     0.00000118     -6906.3685706447 -3.36E-06

  Leaving inner SCF loop after reaching   100 steps.


  Electronic density on regular grids:      -2432.0000000152       -0.0000000152
  Core density on regular grids:             2431.9999999988       -0.0000000012
  Total charge density on r-space grids:       -0.0000000163
  Total charge density g-space grids:          -0.0000000163

  Overlap energy of the core charge distribution:               0.08420507499861
  Self energy of the core charge distribution:             -16017.19408509233290
  Core Hamiltonian energy:                                   4297.18392852848865
  Hartree energy:                                            6141.62853139253821
  Exchange-correlation energy:                              -1326.32192066053699
  Dispersion energy:                                           -1.74922988786246

  Total energy:                                             -6906.36857064470860

  outer SCF iter =    2 RMS gradient =   0.12E-05 energy =      -6906.3685706447

  ----------------------------------- OT ---------------------------------------
  Minimizer      : DIIS                : direct inversion
                                         in the iterative subspace
                                         using   7 DIIS vectors
                                         safer DIIS on
  Preconditioner : FULL_SINGLE_INVERSE : inversion of 
                                         H + eS - 2*(Sc)(c^T*H*c+const)(Sc)^T
  Precond_solver : DEFAULT
  stepsize       :    0.08000000                  energy_gap     :    0.08000000
  eps_taylor     :   0.10000E-15                  max_taylor     :             4
  ----------------------------------- OT ---------------------------------------

  Step     Update method      Time    Convergence         Total energy    Change
  ------------------------------------------------------------------------------
     1 OT DIIS     0.80E-01   33.3     0.00000117     -6906.3685753371 -4.69E-06
     2 OT DIIS     0.80E-01   12.2     0.00000135     -6906.3685759694 -6.32E-07
     3 OT DIIS     0.80E-01   12.3     0.00000116     -6906.3685761137 -1.44E-07
     4 OT DIIS     0.80E-01   12.2     0.00000116     -6906.3685764597 -3.46E-07
     5 OT DIIS     0.80E-01   12.2     0.00000117     -6906.3685776325 -1.17E-06
     6 OT DIIS     0.80E-01   12.4     0.00000116     -6906.3685806743 -3.04E-06
     7 OT DIIS     0.80E-01   12.4     0.00000117     -6906.3685853841 -4.71E-06
     8 OT DIIS     0.80E-01   12.4     0.00000113     -6906.3685882316 -2.85E-06
     9 OT DIIS     0.80E-01   12.4     0.00000113     -6906.3685913685 -3.14E-06
    10 OT DIIS     0.80E-01   12.4     0.00000111     -6906.3685936712 -2.30E-06
    11 OT DIIS     0.80E-01   12.4     0.00000112     -6906.3685961741 -2.50E-06
    12 OT DIIS     0.80E-01   12.4     0.00000112     -6906.3685987835 -2.61E-06
    13 OT DIIS     0.80E-01   12.4     0.00000111     -6906.3686017080 -2.92E-06
    14 OT DIIS     0.80E-01   12.4     0.00000110     -6906.3686051000 -3.39E-06
    15 OT DIIS     0.80E-01   12.3     0.00000109     -6906.3686085159 -3.42E-06
    16 OT DIIS     0.80E-01   12.4     0.00000109     -6906.3686115351 -3.02E-06
    17 OT DIIS     0.80E-01   12.4     0.00000108     -6906.3686154464 -3.91E-06
    18 OT DIIS     0.80E-01   12.3     0.00000109     -6906.3686197891 -4.34E-06
    19 OT DIIS     0.80E-01   12.4     0.00000109     -6906.3686245552 -4.77E-06
    20 OT DIIS     0.80E-01   12.4     0.00000108     -6906.3686280898 -3.53E-06
    21 OT DIIS     0.80E-01   12.4     0.00000106     -6906.3686312276 -3.14E-06
    22 OT DIIS     0.80E-01   12.5     0.00000107     -6906.3686350350 -3.81E-06
    23 OT DIIS     0.80E-01   12.5     0.00000109     -6906.3686429264 -7.89E-06
    24 OT DIIS     0.80E-01   12.4     0.00000108     -6906.3686495648 -6.64E-06
    25 OT SD       0.80E-01   12.4     0.00000107     -6906.3686530492 -3.48E-06
    26 OT DIIS     0.80E-01   12.3     0.00000115     -6906.3686535555 -5.06E-07
    27 OT DIIS     0.80E-01   12.5     0.00000106     -6906.3686581893 -4.63E-06
    28 OT DIIS     0.80E-01   12.4     0.00000113     -6906.3686658784 -7.69E-06
    29 OT DIIS     0.80E-01   12.3     0.00000108     -6906.3686724679 -6.59E-06
    30 OT DIIS     0.80E-01   12.5     0.00000114     -6906.3686796189 -7.15E-06
    31 OT DIIS     0.80E-01   12.9     0.00000171     -6906.3686980046 -1.84E-05
    32 OT SD       0.80E-01   12.5     0.00000164     -6906.3686985264 -5.22E-07
    33 OT SD       0.80E-01   12.4     0.00000308     -6906.3686987125 -1.86E-07
    34 OT SD       0.80E-01   12.4     0.00001250     -6906.3686930558  5.66E-06
    35 OT DIIS     0.80E-01   12.4     0.00006216     -6906.3685461257  1.47E-04
    36 OT DIIS     0.80E-01   12.5     0.00000105     -6906.3686944768 -1.48E-04
    37 OT DIIS     0.80E-01   12.5     0.00000100     -6906.3686953369 -8.60E-07

  *** SCF run converged in    37 steps ***


  Electronic density on regular grids:      -2432.0000000151       -0.0000000151
  Core density on regular grids:             2431.9999999988       -0.0000000012
  Total charge density on r-space grids:       -0.0000000163
  Total charge density g-space grids:          -0.0000000163

  Overlap energy of the core charge distribution:               0.08420507499861
  Self energy of the core charge distribution:             -16017.19408509233290
  Core Hamiltonian energy:                                   4297.18419567440560
  Hartree energy:                                            6141.62843893769241
  Exchange-correlation energy:                              -1326.32222004380696
  Dispersion energy:                                           -1.74922988786246

  Total energy:                                             -6906.36869533690515

  outer SCF iter =    3 RMS gradient =   0.10E-05 energy =      -6906.3686953369
  outer SCF loop converged in   3 iterations or  237 steps


 ENERGY| Total FORCE_EVAL ( QS ) energy [hartree]          -6906.368696369304416

 OPT| **************************************************************************
 OPT| Step number                                                              1
 OPT| Optimization method                                                  LBFGS
 OPT| Total energy [hartree]                                    -6906.3686963693
 OPT| Effective energy change [hartree]                           -14.0043980609
 OPT| Decrease in energy                                                     YES
 OPT| Used time [s]                                                     8563.670
 OPT|
[...]
                                         in the iterative subspace
                                         using   7 DIIS vectors
                                         safer DIIS on
  Preconditioner : FULL_SINGLE_INVERSE : inversion of 
                                         H + eS - 2*(Sc)(c^T*H*c+const)(Sc)^T
  Precond_solver : DEFAULT
  stepsize       :    0.08000000                  energy_gap     :    0.08000000
  eps_taylor     :   0.10000E-15                  max_taylor     :             4
  ----------------------------------- OT ---------------------------------------

  Step     Update method      Time    Convergence         Total energy    Change
  ------------------------------------------------------------------------------
     1 OT DIIS     0.80E-01   16.3     0.00065626     -6922.0040936089 -6.92E+03
     2 OT DIIS     0.80E-01   12.2     0.00066289     -6922.0577192397 -5.36E-02
     3 OT DIIS     0.80E-01   12.3     0.00026675     -6922.1031598162 -4.54E-02
     4 OT DIIS     0.80E-01   12.2     0.00017203     -6922.1186316752 -1.55E-02
     5 OT DIIS     0.80E-01   12.3     0.00011796     -6922.1299728003 -1.13E-02
     6 OT DIIS     0.80E-01   12.2     0.00016238     -6922.1318285345 -1.86E-03
     7 OT DIIS     0.80E-01   12.2     0.00006740     -6922.1333548962 -1.53E-03
     8 OT DIIS     0.80E-01   12.4     0.00004055     -6922.1338487169 -4.94E-04
     9 OT DIIS     0.80E-01   12.2     0.00003197     -6922.1340178569 -1.69E-04
    10 OT DIIS     0.80E-01   12.3     0.00002036     -6922.1341905932 -1.73E-04
    11 OT DIIS     0.80E-01   12.4     0.00002386     -6922.1343227353 -1.32E-04
    12 OT DIIS     0.80E-01   12.3     0.00001775     -6922.1344094930 -8.68E-05
    13 OT DIIS     0.80E-01   12.2     0.00001330     -6922.1345357941 -1.26E-04
    14 OT DIIS     0.80E-01   12.2     0.00001343     -6922.1346276421 -9.18E-05
    15 OT DIIS     0.80E-01   12.3     0.00001287     -6922.1347000975 -7.25E-05
    16 OT DIIS     0.80E-01   12.3     0.00001184     -6922.1347858416 -8.57E-05
    17 OT DIIS     0.80E-01   12.3     0.00001184     -6922.1348677688 -8.19E-05
    18 OT DIIS     0.80E-01   12.3     0.00000979     -6922.1349577178 -8.99E-05
    19 OT DIIS     0.80E-01   12.2     0.00001022     -6922.1350409877 -8.33E-05
    20 OT DIIS     0.80E-01   12.4     0.00000922     -6922.1350945771 -5.36E-05
    21 OT DIIS     0.80E-01   12.2     0.00000831     -6922.1351723155 -7.77E-05
    22 OT DIIS     0.80E-01   12.8     0.00000791     -6922.1352405851 -6.83E-05
    23 OT DIIS     0.80E-01   12.7     0.00000753     -6922.1353062614 -6.57E-05
    24 OT DIIS     0.80E-01   12.8     0.00000714     -6922.1353634663 -5.72E-05
    25 OT DIIS     0.80E-01   12.7     0.00000636     -6922.1354103252 -4.69E-05
    26 OT DIIS     0.80E-01   12.9     0.00000598     -6922.1354495433 -3.92E-05
    27 OT DIIS     0.80E-01   12.7     0.00000565     -6922.1354810603 -3.15E-05
    28 OT DIIS     0.80E-01   12.8     0.00000569     -6922.1355062992 -2.52E-05
    29 OT DIIS     0.80E-01   12.7     0.00000483     -6922.1355279073 -2.16E-05
    30 OT DIIS     0.80E-01   12.6     0.00000455     -6922.1355473955 -1.95E-05
    31 OT DIIS     0.80E-01   12.6     0.00000444     -6922.1355610125 -1.36E-05
    32 OT DIIS     0.80E-01   12.8     0.00000410     -6922.1355753921 -1.44E-05
    33 OT DIIS     0.80E-01   12.7     0.00000402     -6922.1355884050 -1.30E-05
    34 OT DIIS     0.80E-01   12.7     0.00000389     -6922.1356001707 -1.18E-05
    35 OT DIIS     0.80E-01   12.7     0.00000377     -6922.1356119730 -1.18E-05
    36 OT DIIS     0.80E-01   12.7     0.00000375     -6922.1356226975 -1.07E-05
    37 OT DIIS     0.80E-01   12.8     0.00000352     -6922.1356341164 -1.14E-05
    38 OT DIIS     0.80E-01   12.7     0.00000343     -6922.1356454517 -1.13E-05
    39 OT DIIS     0.80E-01   12.8     0.00000334     -6922.1356569667 -1.15E-05
    40 OT DIIS     0.80E-01   12.6     0.00000325     -6922.1356702198 -1.33E-05
    41 OT DIIS     0.80E-01   12.8     0.00000315     -6922.1356831206 -1.29E-05
    42 OT DIIS     0.80E-01   12.7     0.00000308     -6922.1356949702 -1.18E-05
    43 OT DIIS     0.80E-01   12.8     0.00000299     -6922.1357058729 -1.09E-05
    44 OT DIIS     0.80E-01   12.7     0.00000297     -6922.1357165228 -1.06E-05
    45 OT DIIS     0.80E-01   12.7     0.00000284     -6922.1357265475 -1.00E-05
    46 OT DIIS     0.80E-01   12.7     0.00000275     -6922.1357362605 -9.71E-06
    47 OT DIIS     0.80E-01   12.5     0.00000270     -6922.1357445155 -8.26E-06
    48 OT DIIS     0.80E-01   12.8     0.00000254     -6922.1357533070 -8.79E-06
    49 OT DIIS     0.80E-01   12.7     0.00000251     -6922.1357611735 -7.87E-06
    50 OT DIIS     0.80E-01   12.6     0.00000246     -6922.1357682683 -7.09E-06
    51 OT DIIS     0.80E-01   12.8     0.00000242     -6922.1357752663 -7.00E-06
    52 OT DIIS     0.80E-01   12.6     0.00000240     -6922.1357818270 -6.56E-06
    53 OT DIIS     0.80E-01   12.8     0.00000231     -6922.1357879506 -6.12E-06
    54 OT DIIS     0.80E-01   12.9     0.00000224     -6922.1357937955 -5.84E-06
    55 OT DIIS     0.80E-01   12.7     0.00000221     -6922.1357992836 -5.49E-06
    56 OT DIIS     0.80E-01   12.7     0.00000215     -6922.1358054897 -6.21E-06
    57 OT DIIS     0.80E-01   12.7     0.00000211     -6922.1358115040 -6.01E-06
    58 OT DIIS     0.80E-01   12.8     0.00000207     -6922.1358170155 -5.51E-06
    59 OT DIIS     0.80E-01   12.8     0.00000203     -6922.1358221117 -5.10E-06
    60 OT DIIS     0.80E-01   12.9     0.00000202     -6922.1358270151 -4.90E-06
    61 OT DIIS     0.80E-01   12.7     0.00000196     -6922.1358314973 -4.48E-06
    62 OT DIIS     0.80E-01   12.8     0.00000192     -6922.1358360104 -4.51E-06
    63 OT DIIS     0.80E-01   12.7     0.00000190     -6922.1358400767 -4.07E-06
    64 OT DIIS     0.80E-01   12.9     0.00000182     -6922.1358444070 -4.33E-06
    65 OT DIIS     0.80E-01   12.7     0.00000179     -6922.1358483872 -3.98E-06
    66 OT DIIS     0.80E-01   12.7     0.00000177     -6922.1358518837 -3.50E-06
    67 OT DIIS     0.80E-01   12.7     0.00000174     -6922.1358552203 -3.34E-06
    68 OT DIIS     0.80E-01   12.7     0.00000174     -6922.1358584551 -3.23E-06
    69 OT DIIS     0.80E-01   12.7     0.00000169     -6922.1358615808 -3.13E-06
    70 OT DIIS     0.80E-01   12.7     0.00000166     -6922.1358645091 -2.93E-06
    71 OT DIIS     0.80E-01   12.7     0.00000164     -6922.1358671519 -2.64E-06
    72 OT DIIS     0.80E-01   12.8     0.00000160     -6922.1358699211 -2.77E-06
    73 OT DIIS     0.80E-01   12.7     0.00000157     -6922.1358728108 -2.89E-06
    74 OT DIIS     0.80E-01   12.7     0.00000156     -6922.1358755627 -2.75E-06
    75 OT DIIS     0.80E-01   12.7     0.00000155     -6922.1358782515 -2.69E-06
    76 OT DIIS     0.80E-01   12.8     0.00000154     -6922.1358808145 -2.56E-06
    77 OT DIIS     0.80E-01   12.7     0.00000150     -6922.1358833225 -2.51E-06
    78 OT DIIS     0.80E-01   12.8     0.00000149     -6922.1358857855 -2.46E-06
    79 OT DIIS     0.80E-01   12.6     0.00000148     -6922.1358881539 -2.37E-06
    80 OT DIIS     0.80E-01   12.7     0.00000145     -6922.1358908544 -2.70E-06
    81 OT DIIS     0.80E-01   12.8     0.00000143     -6922.1358938174 -2.96E-06
    82 OT DIIS     0.80E-01   12.7     0.00000143     -6922.1358966028 -2.79E-06
    83 OT DIIS     0.80E-01   12.8     0.00000141     -6922.1358992132 -2.61E-06
    84 OT DIIS     0.80E-01   12.7     0.00000141     -6922.1359017615 -2.55E-06
    85 OT DIIS     0.80E-01   12.7     0.00000138     -6922.1359044989 -2.74E-06
    86 OT DIIS     0.80E-01   12.8     0.00000138     -6922.1359073883 -2.89E-06
    87 OT DIIS     0.80E-01   12.7     0.00000137     -6922.1359101800 -2.79E-06
    88 OT DIIS     0.80E-01   12.7     0.00000134     -6922.1359132476 -3.07E-06
    89 OT DIIS     0.80E-01   12.7     0.00000132     -6922.1359164086 -3.16E-06
    90 OT DIIS     0.80E-01   12.8     0.00000132     -6922.1359193816 -2.97E-06
    91 OT DIIS     0.80E-01   12.7     0.00000132     -6922.1359224771 -3.10E-06
    92 OT DIIS     0.80E-01   12.9     0.00000131     -6922.1359257511 -3.27E-06
    93 OT DIIS     0.80E-01   12.7     0.00000129     -6922.1359291820 -3.43E-06
    94 OT DIIS     0.80E-01   12.7     0.00000128     -6922.1359323549 -3.17E-06
    95 OT DIIS     0.80E-01   12.9     0.00000126     -6922.1359350752 -2.72E-06
    96 OT DIIS     0.80E-01   12.7     0.00000125     -6922.1359383331 -3.26E-06
    97 OT DIIS     0.80E-01   12.8     0.00000124     -6922.1359425389 -4.21E-06
    98 OT DIIS     0.80E-01   12.7     0.00000125     -6922.1359467462 -4.21E-06
    99 OT DIIS     0.80E-01   12.6     0.00000122     -6922.1359503060 -3.56E-06
   100 OT DIIS     0.80E-01   12.7     0.00000120     -6922.1359528349 -2.53E-06

  Leaving inner SCF loop after reaching   100 steps.


  Electronic density on regular grids:      -2431.9999998231        0.0000001769
  Core density on regular grids:             2431.9999999988       -0.0000000012
  Total charge density on r-space grids:        0.0000001757
  Total charge density g-space grids:           0.0000001758

  Overlap energy of the core charge distribution:               0.00000816909278
  Self energy of the core charge distribution:             -16017.19408509233290
  Core Hamiltonian energy:                                   4260.48068684983537
  Hartree energy:                                            6155.01026831274703
  Exchange-correlation energy:                              -1318.64476360435970
  Dispersion energy:                                           -1.78806746984200

  Total energy:                                             -6922.13595283485847

  outer SCF iter =    1 RMS gradient =   0.12E-05 energy =      -6922.1359528349

  ----------------------------------- OT ---------------------------------------
  Minimizer      : DIIS                : direct inversion
                                         in the iterative subspace
                                         using   7 DIIS vectors
                                         safer DIIS on
  Preconditioner : FULL_SINGLE_INVERSE : inversion of 
                                         H + eS - 2*(Sc)(c^T*H*c+const)(Sc)^T
  Precond_solver : DEFAULT
  stepsize       :    0.08000000                  energy_gap     :    0.08000000
  eps_taylor     :   0.10000E-15                  max_taylor     :             4
  ----------------------------------- OT ---------------------------------------

  Step     Update method      Time    Convergence         Total energy    Change
  ------------------------------------------------------------------------------
     1 OT DIIS     0.80E-01   33.4     0.00000139     -6922.1359556358 -2.80E-06
     2 OT DIIS     0.80E-01   12.2     0.00000173     -6922.1359564863 -8.51E-07
     3 OT DIIS     0.80E-01   12.2     0.00000135     -6922.1359567054 -2.19E-07
     4 OT DIIS     0.80E-01   12.3     0.00000135     -6922.1359580949 -1.39E-06
     5 OT DIIS     0.80E-01   12.6     0.00000139     -6922.1359623867 -4.29E-06
     6 OT DIIS     0.80E-01   12.2     0.00000141     -6922.1359660673 -3.68E-06
     7 OT DIIS     0.80E-01   12.2     0.00000116     -6922.1359700646 -4.00E-06
     8 OT DIIS     0.80E-01   12.3     0.00000113     -6922.1359733317 -3.27E-06
     9 OT DIIS     0.80E-01   12.4     0.00000114     -6922.1359748428 -1.51E-06
    10 OT DIIS     0.80E-01   12.4     0.00000121     -6922.1359770284 -2.19E-06
    11 OT DIIS     0.80E-01   12.2     0.00000118     -6922.1359786270 -1.60E-06
    12 OT DIIS     0.80E-01   12.2     0.00000109     -6922.1359801811 -1.55E-06
    13 OT DIIS     0.80E-01   12.3     0.00000105     -6922.1359823412 -2.16E-06
    14 OT DIIS     0.80E-01   12.3     0.00000105     -6922.1359834651 -1.12E-06
    15 OT DIIS     0.80E-01   12.2     0.00000104     -6922.1359846513 -1.19E-06
    16 OT DIIS     0.80E-01   12.2     0.00000103     -6922.1359862279 -1.58E-06
    17 OT DIIS     0.80E-01   12.8     0.00000104     -6922.1359882245 -2.00E-06
    18 OT DIIS     0.80E-01   12.3     0.00000103     -6922.1359901487 -1.92E-06
    19 OT DIIS     0.80E-01   12.3     0.00000104     -6922.1359915602 -1.41E-06
    20 OT DIIS     0.80E-01   12.2     0.00000101     -6922.1359929117 -1.35E-06
    21 OT DIIS     0.80E-01   12.3     0.00000100     -6922.1359952607 -2.35E-06

  *** SCF run converged in    21 steps ***


  Electronic density on regular grids:      -2431.9999998231        0.0000001769
  Core density on regular grids:             2431.9999999988       -0.0000000012
  Total charge density on r-space grids:        0.0000001757
  Total charge density g-space grids:           0.0000001757

  Overlap energy of the core charge distribution:               0.00000816909278
  Self energy of the core charge distribution:             -16017.19408509233290
  Core Hamiltonian energy:                                   4260.47961278467938
  Hartree energy:                                            6155.01137802832545
  Exchange-correlation energy:                              -1318.64484168062017
  Dispersion energy:                                           -1.78806746984200

  Total energy:                                             -6922.13599526069720

  outer SCF iter =    2 RMS gradient =   0.10E-05 energy =      -6922.1359952607
  outer SCF loop converged in   2 iterations or  121 steps


 ENERGY| Total FORCE_EVAL ( QS ) energy [hartree]          -6922.135997441354448

 OPT| **************************************************************************
 OPT| Step number                                                            120
 OPT| Optimization method                                                  LBFGS
 OPT| Total energy [hartree]                                    -6922.1359974414
 OPT| Effective energy change [hartree]                            -0.0043786748
 OPT| Decrease in energy                                                     YES
 OPT| Used time [s]                                                     1569.397
 OPT|
 OPT| Maximum step size                                             0.1106300819
 OPT| Convergence limit for maximum step size                       0.0030000000
 OPT| Maximum step size is converged                                          NO
 OPT|
 OPT| RMS step size                                                 0.0093169427
 OPT| Convergence limit for RMS step size                           0.0015000000
 OPT| RMS step size is converged                                              NO
 OPT|
 OPT| Maximum gradient                                              0.0087561205
 OPT| Convergence limit for maximum gradient                        0.0010000000
 OPT| Maximum gradient is converged                                           NO
 OPT|
 OPT| RMS gradient                                                  0.0012322114
 OPT| Convergence limit for RMS gradient                            0.0005000000
 OPT| RMS gradient is converged                                               NO
 OPT| **************************************************************************
 OPT| Estimated peak process memory after this step [MiB]                  15311

 --------------------------
 OPTIMIZATION STEP:    121
 --------------------------

 Number of electrons:                                                       2432
 Number of occupied orbitals:                                               1216
 Number of molecular orbitals:                                              1216

 Number of orbital functions:                                               4983
 Number of independent orbital functions:                                   4983

 Extrapolation method: ASPC


 SCF WAVEFUNCTION OPTIMIZATION

  ----------------------------------- OT ---------------------------------------
  Minimizer      : DIIS                : direct inversion
                                         in the iterative subspace
                                         using   7 DIIS vectors
                                         safer DIIS on
  Preconditioner : FULL_SINGLE_INVERSE : inversion of 
                                         H + eS - 2*(Sc)(c^T*H*c+const)(Sc)^T
  Precond_solver : DEFAULT
  stepsize       :    0.08000000                  energy_gap     :    0.08000000
  eps_taylor     :   0.10000E-15                  max_taylor     :             4
  ----------------------------------- OT ---------------------------------------

  Step     Update method      Time    Convergence         Total energy    Change
  ------------------------------------------------------------------------------
     1 OT DIIS     0.80E-01   16.5     0.00056997     -6922.0381413432 -6.92E+03
     2 OT DIIS     0.80E-01   12.2     0.00073089     -6922.0551643012 -1.70E-02
     3 OT DIIS     0.80E-01   12.2     0.00020289     -6922.1099113008 -5.47E-02
     4 OT DIIS     0.80E-01   12.2     0.00015241     -6922.1237820574 -1.39E-02
     5 OT DIIS     0.80E-01   12.2     0.00015532     -6922.1313494537 -7.57E-03
     6 OT DIIS     0.80E-01   12.6     0.00017598     -6922.1333874776 -2.04E-03
     7 OT DIIS     0.80E-01   12.3     0.00005012     -6922.1357481548 -2.36E-03
     8 OT DIIS     0.80E-01   12.4     0.00003807     -6922.1363358378 -5.88E-04
     9 OT DIIS     0.80E-01   12.3     0.00003472     -6922.1365383667 -2.03E-04
    10 OT DIIS     0.80E-01   12.2     0.00003481     -6922.1367206742 -1.82E-04
    11 OT DIIS     0.80E-01   12.3     0.00002065     -6922.1368630858 -1.42E-04
    12 OT DIIS     0.80E-01   12.1     0.00001844     -6922.1370311040 -1.68E-04
    13 OT DIIS     0.80E-01   12.1     0.00001546     -6922.1371772408 -1.46E-04
    14 OT DIIS     0.80E-01   12.4     0.00001623     -6922.1372678209 -9.06E-05
    15 OT DIIS     0.80E-01   12.3     0.00001316     -6922.1373526089 -8.48E-05
    16 OT DIIS     0.80E-01   12.6     0.00001138     -6922.1374337980 -8.12E-05
    17 OT DIIS     0.80E-01   12.4     0.00001160     -6922.1375045450 -7.07E-05
    18 OT DIIS     0.80E-01   12.2     0.00001112     -6922.1375551032 -5.06E-05
    19 OT DIIS     0.80E-01   12.4     0.00000930     -6922.1375979702 -4.29E-05
    20 OT DIIS     0.80E-01   12.3     0.00000880     -6922.1376380277 -4.01E-05
    21 OT DIIS     0.80E-01   12.3     0.00000768     -6922.1376737157 -3.57E-05
    22 OT DIIS     0.80E-01   12.2     0.00000717     -6922.1377119502 -3.82E-05
    23 OT DIIS     0.80E-01   12.2     0.00000682     -6922.1377509140 -3.90E-05
    24 OT DIIS     0.80E-01   12.4     0.00000690     -6922.1377904930 -3.96E-05
    25 OT DIIS     0.80E-01   12.8     0.00000662     -6922.1378239783 -3.35E-05
    26 OT DIIS     0.80E-01   12.7     0.00000625     -6922.1378657489 -4.18E-05
    27 OT DIIS     0.80E-01   12.7     0.00000624     -6922.1378960130 -3.03E-05
    28 OT DIIS     0.80E-01   12.9     0.00000580     -6922.1379358008 -3.98E-05
    29 OT DIIS     0.80E-01   13.3     0.00000563     -6922.1379766450 -4.08E-05
    30 OT DIIS     0.80E-01   12.7     0.00000542     -6922.1380104263 -3.38E-05
    31 OT DIIS     0.80E-01   12.8     0.00000478     -6922.1380469777 -3.66E-05
    32 OT DIIS     0.80E-01   12.8     0.00000456     -6922.1380806398 -3.37E-05
    33 OT DIIS     0.80E-01   12.7     0.00000450     -6922.1381085247 -2.79E-05
    34 OT DIIS     0.80E-01   12.8     0.00000460     -6922.1381339957 -2.55E-05
    35 OT DIIS     0.80E-01   13.3     0.00000436     -6922.1381521493 -1.82E-05
    36 OT DIIS     0.80E-01   13.9     0.00000393     -6922.1381694527 -1.73E-05
    37 OT DIIS     0.80E-01   13.4     0.00000373     -6922.1381841432 -1.47E-05
    38 OT DIIS     0.80E-01   13.0     0.00000361     -6922.1381953419 -1.12E-05
    39 OT DIIS     0.80E-01   13.1     0.00000342     -6922.1382076341 -1.23E-05
    40 OT DIIS     0.80E-01   12.9     0.00000332     -6922.1382188069 -1.12E-05
