1731
 Atoms. Timestep: 93820
O 5.6129 1.77864 13.8248
O 5.22415 2.15294 19.1307
O 2.9041 1.6796 17.2963
O 8.27319 4.98975 23.8984
O 8.54472 5.27041 18.7759
O 0.945561 4.43133 18.7756
O 9.04138 2.05241 24.6099
O 7.91021 2.0933 19.7996
O 1.26298 1.43838 19.4024
O 4.9696 5.15831 13.9084
O 6.77392 4.29934 19.9204
O 2.62415 5.20532 19.2684
O 1.92999 2.61839 23.7738
O 6.22141 2.86934 22.0721
O 0.461473 4.09418 17.3373
O 2.83679 6.38757 13.9121
O 7.27952 6.26758 13.8562
O 3.96843 6.68859 22.7114
O 2.77432 3.89565 13.9121
O 6.78274 4.8694 17.1529
O 3.38116 4.26742 21.4557
O 0.98187 0.593816 23.5398
O 6.285 20.4095 20.9947
O 0.108406 0.404364 17.2349
P 1.08449 1.59697 24.7452
P 7.51383 1.51137 21.1479
P 1.515 1.75455 17.9598
P 3.69027 5.17867 13.8189
P 7.05921 4.99646 18.6231
P 2.46284 5.48404 20.6732
Ca 4.69579 3.27718 17.9449
Ca 0.289088 7.28852 21.9144
Ca 0.0942393 3.67747 21.9835
Ca 4.82412 20.6192 18.0538
Ca 3.23134 1.38201 22.5146
Ca 2.45103 1.72446 13.8414
Ca 8.28973 1.74631 13.9304
Ca 1.21695 5.3997 17.434
Ca 2.95743 5.16063 23.9019
Ca 5.82634 5.02893 21.6396
O 0.0525689 2.02373 13.8858
O 0.12717 5.47095 13.8821
O 28.2545 4.77289 13.881
O 0.0666235 1.24035 13.8839
H 28.2716 3.02212 13.8473
H 28.2716 6.46113 13.8474
H 0.00072059 3.85496 13.8473
H 0.00046027 0.420397 13.8474
O 0.563941 2.23554 26.0248
O 1.0171 1.61386 31.8143
O 7.19493 1.92665 26.5654
O 3.87278 6.02477 34.8762
O 3.34066 4.73157 32.1616
O 6.76654 6.14489 31.1464
O 3.75568 1.8796 35.6229
O 2.87999 1.79583 31.5877
O 7.31615 1.63263 28.0454
O 0.544328 5.65422 23.1767
O 1.99103 5.16531 31.4945
O 7.31947 5.09711 29.9052
O 7.59405 3.17301 34.5557
O 2.27168 2.83126 33.9208
O 5.36329 2.34596 26.22
O 7.68698 6.26661 26.4131
O 2.57472 6.20685 28.2903
O 8.41985 6.87886 31.3747
O 7.93268 3.59635 26.0796
O 1.51563 3.98061 32.0259
O 7.92511 4.77812 34.0897
O 6.68464 20.4358 34.9986
O 1.86578 1.33428 34.2694
O 6.14661 1.12287 26.2736
P 5.4967 1.46208 35.8726
P 2.11803 1.74318 32.796
P 5.9942 1.74689 27.7364
P 8.01391 5.22413 25.3183
P 2.95595 5.50561 30.6273
P 8.49116 5.03997 31.0667
Ca 0.244413 3.09016 30.2491
Ca 4.44887 7.38347 33.4776
Ca 4.50595 3.94697 33.7831
Ca 27.5842 20.4741 28.2545
Ca 8.46098 1.78802 33.1498
Ca 6.89546 1.96598 24.4115
Ca 3.03759 1.03828 27.3054
Ca 6.28373 5.81229 27.8644
Ca 6.97473 5.07357 36.1483
Ca 1.3943 4.80075 33.6613
O 4.46393 2.16863 24.8274
O 4.10373 6.24454 25.5554
O 5.43161 4.00409 26.648
O 3.72696 1.02526 25.3187
H 4.88728 4.24397 25.8215
H 2.68978 9.05755 23.7325
H 2.76568 5.61164 27.3926
H 2.90625 17.3762 27.5811
O 5.41466 1.37209 37.4731
O 5.47571 0.845853 45.5946
O 3.05717 0.978116 39.7195
O 7.6415 4.76036 47.6076
O 8.00169 5.66541 43.9942
O 1.05914 4.83324 43.7956
O 9.66717 0.882466 46.0494
O 7.90929 1.41426 42.356
O 1.06378 2.08602 40.7336
O 4.25038 4.73056 36.8513
O 5.52994 4.22548 40.3361
O 3.20566 5.37058 41.4697
O 1.84861 3.96757 46.4574
O 7.15348 3.04883 45.5223
O 1.503 3.64076 40.5544
O 2.909 5.99911 37.2475
O 7.33319 7.01479 43.4481
O 4.70777 6.60771 44.368
O 2.74331 4.50726 37.2346
O 7.09694 3.31614 40.0272
O 3.81357 3.76929 46.4839
O 1.70724 0.537324 48.0542
O 6.71295 0.0477928 45.7451
O 0.148384 0.535002 40.5289
P 1.0349 1.37446 49.2647
P 6.6466 2.17855 42.5112
P 2.18993 1.26041 40.9811
P 2.99041 5.1144 35.8063
P 7.00474 5.20636 40.3519
P 3.10649 5.82618 42.9659
Ca 4.34224 3.54841 38.5736
Ca 0.213454 6.54028 42.6161
Ca 0.0883822 3.41524 45.1652
Ca 3.88132 0.339684 41.6928
Ca 2.95536 1.35785 46.4582
Ca 2.15374 1.07492 36.8178
Ca 8.38763 1.53958 39.9805
Ca 1.84804 5.1789 39.0513
Ca 2.61467 5.01818 48.0707
Ca 6.09796 4.89126 44.6019
O 27.8491 1.75317 37.155
O 0.223476 5.67675 35.1322
O 28.2183 4.35814 35.7523
O 28.1444 0.723661 38.1369
H 0.0318088 1.13723 42.1957
H 27.7248 6.84792 39.9033
H 26.4 6.00858 38.0941
H 23.6079 0.583431 36.8761
O 1.01941 1.6025 50.9035
O 1.02165 1.25812 54.7545
O 7.08358 1.77907 51.9894
O 4.23164 5.11333 56.9928
O 4.79901 5.61989 53.9413
O 6.17199 5.53002 55.2371
O 4.96362 1.90134 57.843
O 2.5832 1.88178 54.7103
O 6.91986 2.04395 54.5848
O 0.316733 4.86489 51.2744
O 0.917956 5.78878 50.6257
O 8.71438 4.48839 54.3145
O 7.13026 2.15072 59.1114
O 2.47431 3.28576 56.7055
O 5.81538 2.85223 54.0471
O 7.84582 6.63709 49.2261
O 3.49438 6.70573 53.8306
O 8.86648 7.29754 55.1015
O 7.54057 3.88751 50.003
O 4.48266 3.83491 49.1308
O 8.84263 4.08599 56.8474
O 6.46958 0.351453 56.9925
O 1.35166 0.678062 57.0543
O 5.00005 20.5999 50.9619
P 6.22855 1.05004 58.3791
P 1.76497 1.92674 56.1161
P 5.89182 1.73853 52.9815
P 7.31643 4.95311 48.9984
P 3.16827 4.96722 53.6781
P 7.75531 4.95558 55.6696
Ca 27.5357 3.5106 51.954
Ca 4.68376 7.45696 56.1065
Ca 4.52385 3.10185 56.0562
Ca 28.1635 20.4054 52.3413
Ca 8.42977 1.49943 56.2227
Ca 6.68694 1.63775 47.067
Ca 3.83041 2.02924 50.4926
Ca 5.95654 4.99918 52.2174
Ca 6.7446 4.97523 57.2803
Ca 1.6935 5.48428 56.8165
O 4.89949 1.93239 47.7266
O 4.41993 5.14697 49.6172
O 4.298 5.41546 50.8972
O 5.21597 1.19486 48.899
H 4.73663 4.73688 46.543
H 6.02675 8.26226 48.059
H 7.03782 4.44068 46.3617
H 2.13975 0.373187 50.586
O 5.60344 8.62022 13.8707
O 6.23482 8.05137 17.6252
O 2.91612 7.79629 18.3615
O 8.2087 12.5218 25.5422
O 8.33659 12.0287 22.8259
O 1.56391 12.7291 21.1369
O 9.54026 8.33263 22.2112
O 8.15104 8.94765 17.538
O 1.80951 9.09316 20.4024
O 4.92782 12.0829 13.9114
O 7.22246 11.9518 22.0708
O 3.08 12.1639 18.6319
O 2.28435 10.6192 24.5294
O 6.62413 9.51335 19.9707
O 0.612129 8.8755 17.8364
O 2.84676 13.2771 13.912
O 7.34595 12.4871 17.4287
O 4.43211 13.9106 22.8876
O 2.86639 10.7861 13.9121
O 7.32565 10.6682 13.9107
O 3.57731 10.3584 20.4406
O 1.07037 6.55687 24.0405
O 6.59566 7.73391 19.9568
O 0.726741 7.00229 17.7523
P 1.44919 8.28847 26.3699
P 7.37735 8.59521 18.6923
P 1.1704 8.52501 19.0792
P 3.69644 12.0344 13.81
P 6.60721 12.1359 18.8553
P 3.07634 11.9426 20.2856
Ca 4.89383 10.4667 17.6058
Ca 27.3325 13.2298 22.4652
Ca 27.8958 10.035 23.7557
Ca 4.75449 6.9832 17.3149
Ca 3.41966 8.4146 21.794
Ca 2.26984 8.41311 13.8323
Ca 8.41104 8.53789 13.8009
Ca 1.48039 12.3471 17.5219
Ca 2.50134 12.2144 25.9903
Ca 6.06706 12.3991 23.6161
O 28.2425 8.94704 13.8817
O 28.2528 12.4556 13.884
O 28.2504 11.6669 13.8793
O 0.133111 8.23089 13.8832
H 0.00135819 9.89948 13.8473
H 0.000881259 13.3414 13.8473
H 0.00049464 10.7351 13.8475
H 28.271 7.29557 13.8473
O 0.0436297 9.30176 26.9844
O 0.184799 8.27232 31.9548
O 7.69675 8.32829 28.974
O 3.54005 10.5786 35.0832
O 4.07201 12.0804 30.3857
O 6.42058 12.3907 31.9722
O 4.53976 7.78135 39.3344
O 2.75003 8.89862 30.2595
O 6.52461 9.06097 31.3745
O 0.926822 11.9445 27.8203
O 0.537139 12.2652 30.895
O 7.65465 12.6485 27.9313
O 6.32825 9.8228 34.249
O 2.14249 9.87586 34.9206
O 4.63997 10.2206 26.8853
O 7.79808 13.5991 26.7493
O 3.02808 12.9211 28.4206
O 8.03873 12.7068 29.5281
O 7.69364 11.0609 27.3817
O 1.7211 9.9935 29.7761
O 8.31803 10.8762 32.6704
O 6.59114 6.93927 34.1394
O 1.70474 9.00266 33.7486
O 5.02246 7.40138 29.4096
P 6.23525 8.7682 35.477
P 2.56545 8.76413 31.7946
P 5.99578 7.21815 30.4571
P 8.20899 11.8691 26.7743
P 2.65075 12.2096 29.6428
P 7.30648 11.2745 31.6858
Ca 28.2352 9.7205 30.7934
Ca 4.65109 14.2462 31.5818
Ca 4.71827 11.0804 33.5875
Ca 0.0471049 6.72544 30.5798
Ca 8.3611 8.54655 32.9429
Ca 7.11748 9.3094 22.4428
Ca 3.69141 9.02972 28.2255
Ca 5.81405 12.0253 29.0725
Ca 7.13135 11.8069 37.9459
Ca 0.801962 12.0329 33.6873
O 4.06496 8.87758 23.7334
O 4.86254 12.4975 25.8802
O 4.61023 11.6239 26.945
O 5.17417 8.88267 24.6601
H 3.94134 9.35868 24.8251
H 3.65605 9.21959 25.5756
H 6.80733 10.1057 31.45
H 4.67174 6.59917 24.7905
O 5.43734 8.26972 40.2695
O 5.29875 9.08884 45.4803
O 2.77871 7.45908 42.7968
O 8.43668 12.6948 47.0172
O 8.32446 12.5248 43.371
O 1.89661 11.525 45.1418
O 9.51023 8.91925 48.3481
O 8.13904 8.06998 46.1468
O 1.59329 9.73976 42.8084
O 4.92221 12.6188 36.8935
O 5.69379 11.7358 39.6199
O 3.52732 12.4866 40.0734
O 2.79156 10.0754 46.8624
O 6.06694 9.95507 46.1809
O 0.912324 9.93695 40.0238
O 2.66221 13.3038 36.1189
O 7.41551 13.8758 38.8891
O 4.13015 12.9163 46.0538
O 2.64517 11.1421 37.8163
O 7.37316 10.0886 42.7927
O 3.92168 11.0194 41.9012
O 0.93312 7.08596 47.8075
O 5.80699 6.8644 46.9788
O 0.753948 6.49634 40.3618
P 1.35164 8.69641 47.7692
P 6.77834 8.72175 45.0298
P 1.34515 9.5377 41.3263
P 3.36357 12.2492 36.9474
P 7.7243 11.6928 42.0184
P 2.93364 12.2607 41.7128
Ca 4.46836 10.1654 39.538
Ca 0.21764 14.0151 44.5196
Ca 28.1658 10.0677 44.8918
Ca 4.69908 6.41182 41.7564
Ca 3.61705 8.57831 44.6302
Ca 2.2965 8.34422 36.8383
Ca 7.89704 8.37741 40.6278
Ca 1.10672 12.0339 39.0193
Ca 2.11695 12.4262 47.3709
Ca 5.37258 12.1103 44.6104
O 27.9731 8.99044 37.9513
O 28.0749 12.5538 37.1645
O 0.154058 11.9623 35.9207
O 1.05826 7.78843 38.2063
H 27.9617 10.9064 35.7368
H 23.5857 15.7972 38.1658
H 27.1454 12.2172 37.4681
H 3.3155 9.22592 31.0253
O 1.15175 9.22684 49.1896
O 1.66348 8.79502 52.9748
O 7.63566 8.38979 52.3133
O 3.20379 12.1475 57.0994
O 3.17782 10.9791 51.8308
O 5.73886 11.9704 55.9919
O 4.70044 9.0979 57.6813
O 3.01441 9.04617 53.6726
O 7.14295 8.87322 54.7261
O 0.863945 11.7111 48.7727
O 0.25874 11.191 52.9857
O 8.01975 11.9716 55.0119
O 6.67402 9.57716 58.2483
O 2.7605 10.3053 54.5481
O 4.76847 9.11647 49.4948
O 6.47247 13.6462 49.8595
O 1.86285 13.47 50.4781
O 8.99368 12.6052 57.3652
O 7.9107 10.5054 52.3528
O 3.28814 10.9153 47.7889
O 9.40684 10.6441 56.9014
O 6.61835 7.92055 58.2518
O 1.89669 7.94645 55.7644
O 6.09611 7.68589 52.1725
P 5.5025 9.0688 59.0523
P 2.09266 8.35343 54.4098
P 6.5995 8.2835 53.5152
P 8.05272 11.2773 50.9415
P 2.48175 12.3323 51.4009
P 8.36517 11.7001 56.4136
Ca 28.2239 10.4044 50.5857
Ca 4.74574 13.4416 55.5676
Ca 4.11658 10.3272 55.9931
Ca 28.0416 7.4459 50.1318
Ca 8.14708 8.62268 56.8114
Ca 7.07989 8.6294 50.1571
Ca 3.68028 9.04477 51.4992
Ca 5.57352 12.0047 49.0641
Ca 7.09884 11.9308 57.5245
Ca 1.64005 12.4161 55.8823
O 5.13337 9.56921 48.2016
O 4.20642 12.3149 47.3512
O 3.59254 11.9823 48.9244
O 4.83525 9.03227 46.8371
H 8.29097 7.64458 46.952
H 3.07621 10.7279 47.0557
H 2.03722 10.8681 44.5484
H 6.02911 7.45467 47.7823
O 5.65187 15.4016 13.8749
O 5.21193 15.3769 19.8807
O 3.61329 15.7127 17.2407
O 8.76734 19.3453 24.4171
O 8.91297 18.9878 15.5885
O 1.75449 19.0085 21.5189
O 9.51646 15.7766 23.9438
O 7.2097 15.6536 19.2287
O 2.14243 15.2587 21.2252
O 4.96316 18.915 13.9121
O 6.61652 18.4169 18.3948
O 3.66314 18.2391 19.2891
O 1.90649 16.595 25.2697
O 6.94991 16.1252 21.7987
O 0.796899 16.9257 18.3586
O 2.8358 20.1385 13.9117
O 7.31291 20.0771 13.845
O 3.33448 20.327 21.2351
O 2.80005 17.6621 13.9116
O 6.57221 17.2525 17.6648
O 4.29525 16.9014 22.1926
O 2.03033 14.2435 25.5884
O 6.0969 14.5597 24.2273
O 0.623723 13.0473 18.2918
P 0.732532 15.9028 25.9562
P 6.33392 15.8844 20.5482
P 1.71085 15.0882 19.6802
P 3.58817 18.9541 13.81
P 7.36416 19.1713 15.0434
P 3.81249 19.0711 20.5611
Ca 4.72599 16.6137 17.6809
Ca 0.499465 20.5604 20.3927
Ca 27.859 16.9038 20.5318
Ca 4.21418 13.8241 17.9275
Ca 3.33033 15.9248 24.2601
Ca 2.39691 15.4448 13.8424
Ca 8.03015 15.5583 17.0016
Ca 1.20556 18.8769 13.9388
Ca 2.3858 19.0136 23.528
Ca 6.1093 18.992 22.9775
O 0.0650654 15.7827 13.8845
O 0.00999632 19.3191 13.8836
O 28.2339 18.5599 13.8848
O 28.2053 15.1478 13.8822
H 0.000481507 16.7819 13.8474
H 28.2713 20.2176 13.8474
H 28.2718 17.6171 13.8474
H 0.000392654 14.1749 13.8473
O 0.980763 15.9314 27.4532
O 0.780867 15.1545 32.7115
O 7.32407 16.2696 27.6878
O 3.78285 18.2144 37.4081
O 4.48891 20.0384 29.44
O 7.07158 20.1864 31.887
O 5.65192 15.989 33.024
O 3.12432 15.3145 31.2916
O 7.25975 15.046 27.8868
O 0.553464 19.8785 26.6919
O 1.12495 18.9549 31.8414
O 7.88056 19.5333 29.6024
O 6.58306 16.6215 35.4804
O 2.21089 16.3707 34.405
O 6.06258 16.9757 27.4046
O 7.8073 20.4998 24.8822
O 2.61497 0.113021 29.3663
O 9.62857 0.0887331 34.5568
O 7.18525 17.596 25.0518
O 2.88563 16.6146 32.1161
O 8.84943 17.4963 31.9933
O 6.95399 14.0471 33.5934
O 1.71497 14.2738 33.5265
O 5.11503 14.8514 29.3268
P 6.13788 15.0868 34.2845
P 2.32328 15.5852 33.1177
P 5.91415 15.9818 28.511
P 8.08749 18.5844 25.583
P 1.57958 18.8411 30.2496
P 7.83882 19.0589 31.1383
Ca 0.180573 17.4671 32.9921
Ca 4.68717 0.0495891 31.3104
Ca 4.32673 17.307 33.6767
Ca 28.2069 13.6886 26.8092
Ca 8.25145 16.0898 33.7754
Ca 7.04312 15.7087 25.657
Ca 3.6898 15.6623 28.9661
Ca 5.46657 19.2897 27.8039
Ca 7.38355 19.1368 36.9393
Ca 1.61613 18.9467 35.1939
O 4.98246 14.7302 27.761
O 4.95449 19.1254 24.637
O 5.27742 18.4794 25.8454
O 5.45137 15.0476 25.6696
H 5.13943 16.0675 21.9388
H 2.09635 16.7201 27.5954
H 5.08347 14.6318 26.7166
H 5.44118 13.7434 21.9693
O 5.60611 15.053 35.6807
O 5.61482 14.8141 41.2947
O 3.89043 15.1843 38.2358
O 9.24951 19.0371 45.0525
O 8.86991 19.0475 40.5453
O 1.24387 18.2343 45.0092
O 8.79559 15.5623 46.946
O 7.62843 15.4337 42.1673
O 1.61861 15.3703 43.7755
O 4.5755 19.9077 39.6256
O 6.05279 19.2772 41.2142
O 3.21333 18.3925 42.5426
O 2.27697 16.8923 47.3785
O 6.10966 15.3918 46.2483
O 0.795571 17.0408 41.9756
O 2.8716 20.0194 39.1965
O 7.83358 19.8997 39.7935
O 3.38482 20.599 44.1056
O 2.40238 17.1836 39.4146
O 6.68474 17.986 38.9286
O 3.25905 17.7014 44.9796
O 1.61755 14.4012 46.1371
O 5.67019 15.07 44.9057
O 0.726462 14.8047 37.6322
P 1.12631 16.134 46.6628
P 6.20897 15.5542 42.5636
P 1.50435 14.8733 42.2495
P 4.08849 19.0632 38.6568
P 7.24203 18.4552 40.4797
P 3.20262 19.0065 43.9829
Ca 5.34691 16.4009 37.2486
Ca 0.158308 20.4439 44.719
Ca 28.0479 17.0682 43.6745
Ca 5.04438 14.2366 39.5429
Ca 3.66642 15.0272 45.2576
Ca 2.6998 15.8169 36.5003
Ca 8.0942 15.4022 40.064
Ca 0.791061 18.6433 40.3761
Ca 2.06894 18.6379 48.5861
Ca 6.31498 18.5068 45.0947
O 27.91 16.4213 36.0107
O 0.0801746 19.8899 38.1414
O 28.1405 18.3965 38.2487
O 0.797982 15.0675 36.1945
H 0.845528 18.2045 37.9917
H 0.609087 0.847617 38.6112
H 3.50177 17.3824 39.3359
H 27.041 12.8816 37.1315
O 1.03519 14.972 48.9382
O 28.197 14.8659 54.0196
O 6.58713 15.9193 51.8816
O 3.62602 19.418 56.5049
O 3.78569 18.6993 53.961
O 5.42986 19.2922 51.6674
O 3.88618 15.3973 58.4683
O 3.12781 15.1158 55.8009
O 6.73555 15.2494 54.5826
O 27.4984 18.7312 50.6352
O 1.26841 18.4276 53.3442
O 8.61674 19.1607 51.0832
O 7.17581 16.7079 58.0205
O 2.48911 15.6048 56.4057
O 4.92734 16.8441 49.4245
O 6.34297 0.146396 48.6336
O 3.53597 20.6069 50.4645
O 8.73417 20.5395 53.01
O 7.1833 17.2637 47.0997
O 2.55977 18.8696 51.2326
O 8.57438 17.5055 53.2459
O 6.14033 14.7923 56.955
O 1.68076 14.791 56.2
O 5.34734 14.9575 53.9271
P 5.70698 15.0408 58.4437
P 1.59241 15.2454 54.986
P 6.9529 15.7372 53.2841
P 8.28288 18.5377 47.1026
P 2.91754 18.9558 52.7567
P 8.20798 18.8645 52.5369
Ca 28.08 17.2164 52.2669
Ca 4.23632 0.146517 55.3138
Ca 5.06037 17.4035 56.5421
Ca 0.0674386 13.9795 52.0214
Ca 8.04236 15.5341 56.2885
Ca 7.69063 15.7138 48.7652
Ca 3.51115 15.5031 48.9267
Ca 5.84953 19.0003 49.6969
Ca 7.24946 18.9825 53.7496
Ca 1.59255 19.401 55.7315
O 5.12467 16.6252 48.0121
O 4.71754 19.1733 47.2004
O 4.92712 17.7901 47.0695
O 5.54754 15.2109 47.6804
H 7.13605 17.281 46.2341
H 7.2388 19.4486 47.0677
H 3.72796 17.0524 46.4186
H 0.308087 13.973 48.886
O 15.0354 1.71739 13.8823
O 14.8437 2.5778 19.8958
O 12.8516 1.92853 13.8198
O 17.4681 4.2953 24.984
O 17.9512 5.35678 17.772
O 10.9449 5.22786 21.6862
O 18.3172 1.65458 23.7031
O 18.1117 2.04081 20.6011
O 11.7195 1.95788 20.4701
O 14.4603 5.12625 13.904
O 15.3638 5.02434 19.6247
O 13.0018 4.94465 18.3692
O 11.2766 2.68561 23.362
O 15.5651 2.35648 23.0121
O 10.5364 2.26137 17.7772
O 12.2947 6.4479 13.9121
O 16.8942 6.00413 17.3008
O 13.735 5.85958 22.5458
O 12.2721 3.93395 13.9115
O 16.7358 4.01782 13.8768
O 13.2143 3.60122 18.9027
O 10.4159 0.183178 25.2305
O 16.0425 0.960771 22.7761
O 11.0149 0.622978 18.5166
P 10.4599 1.98629 25.5252
P 16.3039 1.31495 20.0614
P 10.9531 2.14029 19.2457
P 13.0474 5.13706 13.8152
P 16.0397 5.21101 18.3061
P 12.9132 5.41907 21.2639
Ca 14.6197 3.44012 17.6712
Ca 9.11956 7.13841 20.5756
Ca 9.43065 3.0952 22.6649
Ca 13.9721 20.3659 17.6147
Ca 13.4175 1.86972 21.8908
Ca 11.8665 1.84574 13.8429
Ca 17.471 1.36911 13.9469
Ca 10.6206 4.78215 17.8281
Ca 11.5788 4.93184 23.7383
Ca 15.4859 4.81675 23.2311
O 9.33504 2.00707 13.8838
O 9.32977 5.56021 13.8814
O 9.41987 4.89092 13.8852
O 9.4617 1.38866 13.8788
H 9.42309 3.01799 13.8475
H 9.42282 6.46208 13.8474
H 9.42317 3.85833 13.8473
H 9.42237 0.418183 13.8473
O 10.0648 2.0197 27.0323
O 9.28142 2.12099 31.0495
O 17.6779 1.33785 29.0671
O 11.6311 5.7013 35.7529
O 13.1981 4.86179 30.1058
O 15.6422 5.50307 33.9287
O 13.5453 1.16091 37.0396
O 12.3866 1.43198 30.2697
O 14.4862 2.34499 31.5824
O 8.86982 4.81347 26.4796
O 10.6174 4.8452 29.3702
O 17.8904 5.38056 31.994
O 15.4643 2.63503 35.1001
O 11.8501 3.18639 32.4995
O 14.5201 2.05551 29.111
O 16.7295 6.76927 26.2926
O 12.0848 6.84197 28.7556
O 18.1925 7.08132 34.4717
O 16.956 3.95259 27.3805
O 12.6965 2.8937 23.37
O 17.555 3.77263 32.6645
O 14.984 0.64275 34.762
O 11.997 1.49029 32.8005
O 14.7357 0.227427 30.5521
P 15.2947 1.51631 35.9763
P 11.734 1.86323 31.4024
P 15.5812 1.84162 30.3094
P 17.0641 5.08165 26.2776
P 11.8675 5.66037 29.6942
P 16.7557 5.20833 33.0299
Ca 9.49221 3.41961 28.4769
Ca 14.0824 6.1995 35.8598
Ca 14.5093 3.52598 33.2318
Ca 9.13977 20.6103 27.7827
Ca 18.1749 1.33407 32.2992
Ca 16.5613 1.6566 25.1263
Ca 13.0422 1.4231 27.2818
Ca 15.491 5.04889 29.2036
Ca 16.4147 5.20415 36.2175
Ca 10.6861 5.01631 33.556
O 13.7847 1.08969 25.26
O 14.8982 4.76084 25.3621
O 12.9884 5.4875 25.8456
O 13.3176 0.889235 23.995
H 15.24 19.1171 30.4234
H 12.2628 6.13566 26.0356
H 13.5902 6.01027 25.4479
H 15.4811 19.1163 24.8566
O 15.6913 3.26402 39.1827
O 14.8835 2.6323 43.2356
O 11.5161 1.94766 39.822
O 18.5428 5.66635 45.7085
O 18.8734 5.57329 40.2647
O 11.5717 5.77783 42.8007
O 18.7138 2.00163 46.6338
O 17.6386 2.25886 42.8307
O 11.0351 2.26784 43.6238
O 14.1351 5.08103 37.4558
O 15.215 5.04206 40.7058
O 12.1065 5.12701 41.4355
O 11.6655 3.00941 46.7989
O 16.6331 3.04932 44.8213
O 10.7511 2.6039 42.1077
O 12.961 6.13458 37.7291
O 16.5295 6.33916 38.4464
O 13.4283 6.26448 44.8973
O 11.864 3.85115 36.166
O 16.4636 3.20779 37.896
O 13.9897 3.77998 44.0114
O 11.3761 0.366577 47.8365
O 17.0764 20.5113 41.8635
O 9.65734 0.734331 41.5115
P 10.3656 1.82337 46.9675
P 16.3174 2.15474 43.5563
P 11.387 1.42166 41.2098
P 12.7803 5.08706 36.484
P 16.1606 5.77229 39.7613
P 12.8919 6.25725 43.4559
Ca 14.4723 3.32944 41.1527
Ca 9.40272 6.73576 47.8235
Ca 9.6476 3.55524 44.0837
Ca 14.42 0.344744 39.237
Ca 12.765 2.16882 44.9356
Ca 11.3518 1.44186 36.9352
Ca 17.8103 1.20646 38.0945
Ca 10.5291 4.81787 40.2815
Ca 11.754 5.18386 47.2448
Ca 15.6637 5.72406 45.7479
O 9.33 1.72052 36.3515
O 10.0652 4.8338 37.947
O 9.56942 5.00399 36.6151
O 9.53447 2.01988 37.7509
H 10.2071 5.66434 36.7353
H 9.62534 3.78346 36.4267
H 8.00066 5.67524 34.5292
H 9.12147 1.19549 35.3594
O 10.4917 1.25387 48.3159
O 9.93347 1.9498 54.6553
O 17.0941 2.19167 48.6085
O 13.7536 5.06089 67.2518
O 13.2718 5.22612 55.9588
O 16.1865 5.40394 56.8019
O 13.9461 2.47921 58.7853
O 13.2928 3.13355 54.5382
O 14.7195 2.0966 49.9552
O 9.7928 4.53002 51.3795
O 11.2593 5.56385 55.9798
O 17.8551 4.96475 51.7944
O 15.9254 2.49174 70.2916
O 11.4261 2.39883 56.6734
O 14.5844 3.23565 49.0895
O 17.0702 6.28714 48.1147
O 11.8125 6.96476 51.3547
O 18.1074 6.38832 54.0607
O 17.0647 3.88798 46.8238
O 11.8824 4.60985 49.9519
O 17.4169 3.00204 53.6061
O 15.5911 1.42981 58.6739
O 11.3029 0.116674 50.7615
O 15.1788 0.775888 49.3838
P 14.4809 1.52468 59.8217
P 11.839 2.04664 55.172
P 16.0887 1.84404 49.596
P 17.7936 4.88184 47.3164
P 12.228 5.35346 54.6427
P 17.0802 5.4386 53.2976
Ca 9.50738 3.11413 52.8645
Ca 14.3516 7.13104 55.8982
Ca 14.1215 3.66757 57.0589
Ca 9.57028 0.57322 50.1628
Ca 17.8411 1.62145 55.0492
Ca 16.227 1.40508 46.2894
Ca 12.6393 1.56132 50.6712
Ca 15.8736 5.08491 49.3136
Ca 16.4138 5.76137 58.6808
Ca 10.4889 5.42674 57.7796
O 14.3302 2.66549 47.7275
O 13.8127 5.21777 48.0075
O 13.9134 4.72185 46.7122
O 14.5735 1.47267 47.1758
H 15.5278 0.202192 48.8224
H 10.9077 4.47875 50.4648
H 18.1484 5.35889 48.176
H 12.9692 2.22942 47.3924
O 15.0011 8.57964 13.8833
O 14.5484 9.09315 18.8962
O 12.6504 8.09167 17.5646
O 18.2745 12.2266 23.4773
O 16.5861 12.8576 18.1251
O 11.5876 11.8246 23.0461
O 18.3771 8.67756 28.9062
O 17.6437 8.85803 20.7542
O 9.98517 8.86137 19.411
O 14.3613 12.0333 13.9065
O 15.728 12.9661 13.9986
O 13.1643 12.1815 19.3803
O 12.1438 9.2909 24.966
O 15.8474 9.88123 22.5967
O 9.8842 8.96538 17.8447
O 12.2505 13.2203 13.9113
O 16.7528 14.3198 17.682
O 12.852 13.1833 20.0425
O 12.2292 10.8135 13.912
O 16.7796 10.8003 13.9118
O 13.8256 9.9399 19.1408
O 11.5002 8.41757 23.8936
O 16.3368 6.821 21.6553
O 10.2254 6.72708 17.2317
P 10.5056 8.56007 25.1295
P 16.2595 8.73154 21.4609
P 10.3722 8.43313 17.1476
P 12.9362 11.9202 13.8188
P 17.1535 11.6877 15.1459
P 12.5822 11.4214 21.713
Ca 14.5801 10.3206 17.3654
Ca 9.29741 14.2609 22.4821
Ca 9.42916 10.1746 21.4651
Ca 14.6076 6.93908 17.3578
Ca 13.143 9.0675 22.804
Ca 11.8736 8.62062 13.8462
Ca 17.7267 8.46751 13.7984
Ca 10.6966 12.1436 17.0893
Ca 11.6672 11.9536 25.555
Ca 15.7498 12.1571 22.6958
O 9.36571 8.85991 13.8823
O 9.46711 12.4323 13.883
O 9.43424 11.7644 13.8856
O 9.46394 8.20365 13.8833
H 9.42224 9.89982 13.8474
H 9.42345 13.3389 13.8475
H 9.42452 10.737 13.8475
H 9.42259 7.29789 13.8472
O 11.6647 8.95741 26.3871
O 10.6958 9.93205 31.6319
O 16.4033 8.14626 29.7876
O 13.6994 11.7938 35.2045
O 12.8249 12.6548 32.0094
O 15.9023 11.9347 33.369
O 13.4601 8.35612 35.5024
O 12.4242 8.6602 30.6141
O 16.1265 8.45236 32.3056
O 9.49278 12.2455 26.3996
O 11.6598 12.7097 30.8922
O 18.1174 11.7271 33.1683
O 15.7109 9.66385 36.0031
O 11.1492 10.8886 34.6698
O 15.1055 9.70906 26.8688
O 16.503 12.9515 26.0792
O 12.2815 12.9929 28.002
O 17.8865 13.6283 35.0634
O 16.3706 11.1149 24.439
O 12.2161 10.2828 27.498
O 18.2512 11.3178 34.563
O 16.3231 7.72947 35.9459
O 11.0671 6.97636 31.9789
O 14.7361 6.27465 27.6357
P 15.6052 8.57309 36.8847
P 11.4017 8.50522 31.6534
P 15.2603 8.5227 30.8705
P 17.2369 12.3505 24.8735
P 12.5499 11.4247 28.6948
P 16.7553 12.5457 32.1537
Ca 9.78941 10.0269 29.0259
Ca 14.1891 13.6549 33.9094
Ca 14.5308 10.0675 34.0838
Ca 9.23224 7.00517 28.5572
Ca 17.6507 8.9736 33.23
Ca 16.4801 8.63145 24.8653
Ca 13.2804 8.73649 28.2392
Ca 15.5451 12.1476 27.6049
Ca 16.7724 12.0991 36.8459
Ca 10.9709 12.0959 32.6713
O 14.0878 8.76021 26.2327
O 14.386 13.2351 25.1087
O 14.4871 10.8709 24.2575
O 13.8941 7.8153 25.0897
H 13.3733 9.34122 25.8993
H 13.2823 12.1472 31.4533
H 12.9375 10.7668 23.9307
H 15.4424 6.83838 26.8214
O 14.5835 8.14544 37.9056
O 16.2528 8.15271 40.4789
O 12.5792 8.92689 41.5985
O 18.6062 11.8906 45.4619
O 18.1373 12.459 42.6445
O 11.185 11.6448 41.4744
O 19.3339 8.57119 44.3601
O 16.8018 8.53628 41.9127
O 11.8664 8.83112 42.9457
O 14.8431 11.8488 38.4703
O 15.9292 11.9649 41.7957
O 12.7283 11.3425 40.6668
O 12.2306 10.1996 50.0022
O 15.8358 9.74842 43.9731
O 10.1341 9.27061 40.3767
O 11.6911 13.8326 39.291
O 17.5676 12.8218 40.1549
O 13.3724 13.6696 43.4717
O 11.3055 11.1936 38.1653
O 16.7661 10.6267 41.3698
O 13.3983 10.6196 45.892
O 11.1375 7.34443 46.5458
O 15.8342 6.89351 43.5615
O 11.031 7.47174 40.4847
P 10.5189 8.90345 49.4046
P 16.3244 8.53542 43.2707
P 10.9493 8.58487 41.5596
P 13.0351 11.9901 38.3248
P 17.4457 12.0803 41.4792
P 12.7138 12.1028 42.0032
Ca 14.8993 10.3596 40.1682
Ca 8.74624 13.5594 44.9988
Ca 9.34806 9.3298 44.1222
Ca 13.9926 6.89806 39.9163
Ca 13.2163 8.63176 45.4722
Ca 11.8009 9.42336 36.2016
Ca 17.6707 8.61534 39.1829
Ca 10.0833 12.1707 39.8049
Ca 12.2131 12.0869 49.7562
Ca 14.8591 12.3567 44.1717
O 9.31284 9.05203 36.55
O 9.19495 12.3391 37.6877
O 8.66914 11.9454 36.3119
O 9.01264 8.32731 37.9459
H 9.27678 9.05361 38.355
H 10.1941 12.5725 37.5357
H 12.7923 11.5022 34.8249
H 8.87478 6.42098 34.5517
O 10.6094 7.65961 51.9789
O 9.74131 8.82254 55.067
O 17.5792 8.35674 50.932
O 13.8157 11.7359 58.1157
O 13.7727 11.4631 53.9096
O 16.8514 11.7366 56.6596
O 12.9041 9.21527 67.878
O 13.4585 8.47084 54.5588
O 15.8659 8.68107 52.9716
O 9.81434 11.8028 46.7405
O 9.88227 11.6228 49.8301
O 16.0467 12.2477 54.3862
O 15.2905 9.76284 58.97
O 11.3713 10.8145 57.0686
O 14.3865 10.3442 51.1152
O 18.3986 13.1472 49.5034
O 12.8084 13.6568 50.8617
O 17.9149 13.8211 55.203
O 17.3312 10.8844 46.0092
O 12.1254 10.4367 53.9881
O 18.3344 10.6284 54.8908
O 16.3095 6.84473 56.9511
O 12.5687 7.65385 57.1431
O 14.7224 7.85102 50.362
P 15.003 8.8434 59.8942
P 11.7362 8.02476 55.8799
P 15.7259 8.46276 51.4782
P 17.6872 12.4018 46.5613
P 12.2013 12.3358 53.9036
P 17.7896 12.2455 55.1853
Ca 9.88499 9.6114 53.2128
Ca 13.9991 13.9655 57.4978
Ca 14.104 10.9054 56.0718
Ca 9.08608 6.12592 52.8324
Ca 18.1828 7.98449 55.8841
Ca 16.4956 8.52198 48.705
Ca 12.5567 8.74519 52.0082
Ca 15.1505 12.3945 52.2112
Ca 16.038 11.7866 58.7124
Ca 10.3283 12.314 58.8765
O 15.4207 8.40594 47.0695
O 14.2051 13.5122 45.775
O 13.8817 12.2341 48.245
O 13.7248 8.51114 47.3786
H 14.0671 12.1918 46.2045
H 10.6834 15.201 50.3357
H 14.3422 11.8759 46.929
H 9.36004 9.22887 47.5083
O 14.9947 15.4943 13.9027
O 15.2876 15.0436 17.7846
O 12.1931 15.4534 18.4534
O 17.6108 19.6549 23.831
O 18.9361 19.8061 20.4142
O 10.6935 18.4819 20.9655
O 19.124 15.9148 24.2308
O 18.7732 15.1308 20.7184
O 10.6606 15.4968 20.8516
O 14.3938 18.9293 13.9075
O 14.9015 19.2245 19.5487
O 13.0646 18.152 18.5018
O 10.9077 16.059 23.4355
O 15.8893 15.3753 21.6594
O 9.80717 15.8478 17.6971
O 12.2924 20.1416 13.9112
O 17.7037 20.1858 17.4776
O 13.6786 20.6125 19.573
O 12.2508 17.6428 13.9117
O 17.3693 17.4708 17.852
O 13.4477 17.7488 21.9645
O 11.0904 14.2185 26.8749
O 16.381 15.6723 23.0292
O 10.5587 14.964 18.3082
P 9.83509 15.5131 26.6337
P 16.2003 14.4861 18.9561
P 11.1688 15.0992 19.5279
P 13.0226 18.8949 13.8083
P 16.7236 18.8435 17.7079
P 12.2124 19.0468 20.8874
Ca 14.2302 17.2892 17.3147
Ca 9.51671 20.5782 23.2291
Ca 9.62517 17.3134 22.1198
Ca 14.1306 13.2602 17.8744
Ca 13.5937 15.8144 22.7529
Ca 11.8984 15.5548 13.8455
Ca 17.4338 15.398 13.9214
Ca 10.6162 18.9081 16.8529
Ca 11.5388 18.7083 25.3188
Ca 15.5029 18.9787 22.3883
O 9.42503 15.8497 13.8854
O 9.38419 19.3706 13.8849
O 9.36646 18.5123 13.8832
O 9.49958 15.1881 13.8847
H 9.42462 16.7769 13.8474
H 9.42287 20.2184 13.8474
H 9.42317 17.6168 13.8473
H 9.42221 14.1766 13.8474
O 9.81253 15.6862 28.1899
O 11.2868 16.016 30.5352
O 16.2108 14.6475 27.2187
O 14.132 18.549 34.1322
O 13.0066 19.8344 29.8232
O 16.1845 19.3287 32.462
O 13.1088 15.567 33.9805
O 13.132 15.5928 32.4495
O 14.556 15.5955 32.99
O 8.95059 18.8088 26.8453
O 10.3738 18.7421 30.8124
O 17.0756 19.0476 29.2986
O 15.5799 15.6464 36.1643
O 11.4309 17.2655 34.4133
O 15.6949 16.0667 28.0579
O 17.5879 0.145915 26.1239
O 12.4173 20.4984 28.7095
O 17.7174 19.8262 30.5112
O 16.4606 17.9256 25.39
O 11.7985 17.7114 28.651
O 17.7731 17.5038 31.5193
O 16.0228 14.3457 37.0111
O 11.0534 14.356 32.9562
O 15.6878 14.8149 28.5054
P 15.0611 15.5882 37.637
P 11.2611 14.957 31.6358
P 16.4504 15.5231 29.3198
P 18.159 18.7726 24.994
P 11.5796 18.7877 29.7619
P 17.0487 18.7916 31.4766
Ca 10.1022 17.701 29.1522
Ca 13.7329 0.392074 32.7149
Ca 14.0081 17.7632 32.0111
Ca 9.88602 13.9549 29.5815
Ca 16.8819 16.1651 34.0527
Ca 16.7899 15.3834 25.1512
Ca 12.9474 15.8363 27.6073
Ca 15.5295 18.4188 27.5355
Ca 16.8365 18.7897 36.6044
Ca 10.9493 18.3935 32.9215
O 14.0016 16.1993 25.5706
O 14.5575 19.512 24.6589
O 14.1476 19.0813 26.0422
O 13.8578 14.4159 25.8482
H 14.7634 14.8278 26.2381
H 16.6947 3.67066 21.1203
H 17.6347 18.1133 25.7781
H 14.3083 15.4137 26.0321
O 14.336 15.4557 39.0041
O 15.459 15.4906 42.1948
O 11.7424 15.3223 38.51
O 17.2079 18.8847 44.8157
O 17.8012 19.1459 41.9012
O 11.8257 18.9257 43.0797
O 18.5635 15.5987 47.0692
O 16.775 14.9818 42.635
O 12.2015 15.6888 41.0887
O 13.9154 19.3126 38.3691
O 15.1605 19.4347 40.9368
O 12.8319 18.7081 40.4847
O 10.5053 16.179 44.6755
O 15.7532 16.0957 45.2438
O 10.1106 16.9052 39.8006
O 12.3652 20.2478 38.4204
O 17.6031 0.240396 36.3021
O 12.8126 19.5517 44.1837
O 11.7174 17.1757 40.6174
O 16.8809 17.8337 40.2437
O 12.8663 17.7446 42.7663
O 10.852 14.1923 46.4327
O 16.9883 13.9965 43.8857
O 9.97469 14.2418 36.3513
P 10.8444 16.1524 46.1704
P 16.1301 15.5055 43.8653
P 11.4345 15.7665 39.8165
P 12.9568 19.2869 37.2308
P 16.8 19.0924 40.7336
P 12.7662 18.9455 41.8406
Ca 14.7445 16.9502 40.399
Ca 9.12422 20.6204 43.2533
Ca 9.8652 18.1245 43.4491
Ca 14.1281 14.2535 41.0581
Ca 12.8381 14.7783 45.0712
Ca 12.1989 16.0212 35.7494
Ca 17.8685 15.4495 39.5458
Ca 10.872 18.8002 39.349
Ca 12.3152 19.327 46.4539
Ca 14.9796 18.5582 44.1362
O 9.66721 15.0656 35.0543
O 9.31132 19.7099 37.4425
O 9.50861 18.3226 36.7462
O 8.913 15.3655 36.4908
H 9.43747 16.7009 36.5897
H 9.99621 19.7044 35.1535
H 10.9772 19.4108 35.258
H 9.2839 13.2804 36.6076
O 10.4799 15.6647 49.5314
O 10.1632 15.5998 54.7674
O 16.9119 15.8751 53.8085
O 13.1287 18.8804 57.0012
O 13.8074 18.995 55.9075
O 15.3261 19.1937 55.5296
O 14.0592 15.2393 59.604
O 12.7064 14.7678 55.409
O 15.7853 15.9667 54.9389
O 9.58065 19.3901 47.6011
O 10.8197 19.0636 54.4423
O 17.3378 18.6749 51.8302
O 15.5936 16.5981 57.5245
O 11.6482 17.0276 56.3189
O 14.5135 17.1426 52.8336
O 16.6387 19.8832 45.7197
O 11.8734 19.7967 49.5427
O 18.0671 0.38383 53.4938
O 16.2276 17.6301 49.1705
O 12.351 18.7149 50.3631
O 18.5396 17.6184 56.558
O 16.28 14.2988 58.1711
O 10.2132 13.4451 56.765
O 15.1892 14.1918 50.9631
P 15.6693 15.7239 58.8896
P 11.4554 15.7792 55.4747
P 15.0576 15.905 53.5263
P 17.8347 18.7857 48.4992
P 11.5696 19.3297 53.1906
P 17.4611 19.0508 53.541
Ca 9.37571 17.0201 50.8729
Ca 14.5177 0.0110037 56.6065
Ca 13.9434 17.2595 55.3302
Ca 9.58431 13.8398 48.2828
Ca 17.4234 15.475 56.1332
Ca 16.6222 15.8738 48.1821
Ca 12.7972 15.1381 51.9855
Ca 15.2211 18.8111 50.6346
Ca 16.6133 18.3033 57.0423
Ca 10.8374 18.8268 56.3708
O 13.749 16.0156 48.3568
O 13.9898 19.0636 48.2872
O 12.9863 18.6915 49.3002
O 15.8561 15.6649 50.6797
H 13.8315 16.5382 49.2153
H 13.8001 20.4031 48.2297
H 12.6075 16.1605 47.9164
H 14.074 12.3651 49.2489