LAMMPS data file via write_data, version 29 Aug 2024, timestep = 93820, units = metal

1731 atoms
5 atom types

0 28.272 xlo xhi
0 20.637 ylo yhi
13.792121484589831 76.28066471609725 zlo zhi
0 0 0 xy xz yz

Masses

1 40.078
2 30.974
3 15.999
4 1.008
5 12.011

Atoms # atomic

1 3 5.6129035183174985 1.7786393235063749 13.824803135470654 0 0 0
2 3 5.224145003119957 2.1529352440082232 19.130735769148952 0 0 0
3 3 2.904096304961916 1.6795977576460805 17.296305347669268 0 0 0
4 3 8.273188020113638 4.9897507854133565 23.898433370804774 0 0 0
5 3 8.544721061553789 5.270407548896843 18.77594201259759 0 0 0
6 3 0.9455608527084784 4.431328397719561 18.775592301245698 0 0 0
7 3 9.041381575828083 2.0524091566682787 24.60992074455133 0 0 0
8 3 7.910213081240096 2.09330345863726 19.799617473656085 0 0 0
9 3 1.2629809951780053 1.4383761911661817 19.402439962520415 0 0 0
10 3 4.969602435243243 5.158307966963253 13.90840851548451 0 0 0
11 3 6.773917785253906 4.299341063597371 19.920432285253813 0 0 0
12 3 2.6241478281407993 5.20531606796363 19.268395552833184 0 0 0
13 3 1.9299910936545253 2.6183876801298642 23.773836455802638 0 0 0
14 3 6.221405565968504 2.8693443901746543 22.07208823481625 0 0 0
15 3 0.4614729981880037 4.094179598345438 17.33725937308477 0 0 0
16 3 2.836790036505732 6.38756610585311 13.912066899689211 0 0 0
17 3 7.27951870831782 6.267580680401287 13.856198607105046 0 0 0
18 3 3.968430440472071 6.68859236496294 22.711375796865603 0 0 0
19 3 2.7743156876337447 3.8956495983697423 13.912129179414539 0 0 0
20 3 6.78273571527255 4.869401414267691 17.15285090384273 0 0 0
21 3 3.381155692799375 4.267415471307164 21.455733268966384 0 0 0
22 3 0.981870095812735 0.593816046420327 23.539837441814708 0 0 0
23 3 6.28500211105783 20.409545253564463 20.994733230970464 0 -1 0
24 3 0.10840550263929552 0.40436391118154247 17.234898148154755 0 0 0
25 2 1.0844881756897233 1.5969659147330615 24.745193340198377 0 0 0
26 2 7.513830563788731 1.511365777332044 21.147863343942237 0 0 0
27 2 1.5150012778104305 1.7545547581590493 17.95980827839366 0 0 0
28 2 3.6902745799329617 5.178669640838107 13.818885585907882 0 0 0
29 2 7.059207598486536 4.996457494988833 18.623114843224435 0 0 0
30 2 2.462843289632378 5.484041893290293 20.673216833189702 0 0 0
31 1 4.695790107408102 3.277178939564813 17.944882591812252 0 0 0
32 1 0.2890880182273045 7.288524797140239 21.914350508120375 0 0 0
33 1 0.09423930031052408 3.6774685589207357 21.983475850546636 0 0 0
34 1 4.82411915145988 20.61922377292228 18.053793319205518 0 -1 0
35 1 3.231340130692749 1.382009783108117 22.51456652726688 0 0 0
36 1 2.4510257781449147 1.724457120121015 13.841359986625646 0 0 0
37 1 8.289727417950829 1.7463091058573612 13.930414225559646 0 0 0
38 1 1.2169534535910869 5.39969633224737 17.433962281452548 0 0 0
39 1 2.9574335460577377 5.160634356553918 23.901911599348445 0 0 0
40 1 5.826340861406046 5.028929635376789 21.63964044417999 0 0 0
41 3 0.05256886014705249 2.023731973488717 13.88580957979512 0 0 0
42 3 0.12717031787694502 5.470954362377133 13.882058393766652 0 0 0
43 3 28.254464300943496 4.772888989787523 13.880960605890998 -1 0 0
44 3 0.06662348091085456 1.2403484502734843 13.88393498690197 0 0 0
45 4 28.271641965011796 3.022121152902968 13.847329726955616 -1 0 0
46 4 28.271637477700526 6.461129235998956 13.84743886241484 -1 0 0
47 4 0.0007205899588910952 3.8549597065571715 13.84728063988275 0 0 0
48 4 0.0004602702782205467 0.4203968671413439 13.847447631571228 0 0 0
49 3 0.5639406552550904 2.235543078738083 26.02475513689895 0 0 0
50 3 1.0170965290173444 1.6138574691978442 31.814302142343873 0 0 0
51 3 7.194927139825474 1.9266530319540096 26.565392361652776 0 0 0
52 3 3.8727774413520395 6.024765022967411 34.87618827098562 0 0 0
53 3 3.3406573719201647 4.731574884285504 32.16155279928226 0 0 0
54 3 6.76653864022126 6.144893187023587 31.14642486491454 0 0 0
55 3 3.75567982082536 1.8795976851418363 35.62285510291001 0 0 0
56 3 2.879992803307481 1.7958318392158086 31.58772516520936 0 0 0
57 3 7.316149006890013 1.6326317487701265 28.045406494891324 0 0 0
58 3 0.5443280410474204 5.654221996753268 23.176692490861736 0 0 0
59 3 1.9910304163132526 5.165311255620269 31.494484620942284 0 0 0
60 3 7.319466786948573 5.097114895727806 29.905185320203554 0 0 0
61 3 7.5940538391950065 3.173009889371039 34.55571101976332 0 0 0
62 3 2.271675982284593 2.8312582957223325 33.9208487944228 0 0 0
63 3 5.363290944488963 2.3459576964622992 26.219953378365148 0 0 0
64 3 7.686975561721387 6.26660836420717 26.413084541785295 0 0 0
65 3 2.5747162961902914 6.20684635296781 28.290318555267056 0 0 0
66 3 8.419846986215274 6.878863776787152 31.37465975897774 0 0 0
67 3 7.932677696087631 3.5963452673659297 26.079606317225803 0 0 0
68 3 1.5156253153376553 3.9806051386992296 32.02589822185818 0 0 0
69 3 7.925112373993526 4.778124306588154 34.08974743168544 0 0 0
70 3 6.68464137691975 20.4358418476187 34.998589077978956 0 -1 0
71 3 1.8657825044716427 1.334281255340623 34.269352141865795 0 0 0
72 3 6.146605337194903 1.1228698374203272 26.2736414430518 0 0 0
73 2 5.496695437284011 1.4620816351441257 35.87256296381587 0 0 0
74 2 2.118025421694603 1.7431839692492848 32.79600472922432 0 0 0
75 2 5.9942038240999995 1.7468869604853823 27.736429348547407 0 0 0
76 2 8.013914204797073 5.2241272180020255 25.31832158204079 0 0 0
77 2 2.9559521980603622 5.505605524561109 30.62726099692983 0 0 0
78 2 8.49116270536828 5.039973994457501 31.066748369097343 0 0 0
79 1 0.24441326442449837 3.0901607755905633 30.249143756410536 0 0 0
80 1 4.448873974957458 7.3834738047030966 33.47757671748854 0 0 0
81 1 4.505947510400981 3.9469718113055863 33.78308914623205 0 0 0
82 1 27.584235355912618 20.47414594853881 28.254459691157948 -1 -1 0
83 1 8.460975766839393 1.7880194172567208 33.149777856359194 0 0 0
84 1 6.895464563957977 1.9659796782883103 24.41147367532369 0 0 0
85 1 3.0375853981928294 1.038276791638228 27.305411151716932 0 0 0
86 1 6.283734720083497 5.812288902772388 27.864375602101276 0 0 0
87 1 6.974727648891982 5.073571468024419 36.148343010607775 0 0 0
88 1 1.394300815258302 4.800754728348673 33.66127055454349 0 0 0
89 3 4.4639292652670095 2.1686262967943377 24.827405108973704 0 0 0
90 3 4.1037283036042815 6.2445399687736485 25.55543077847585 0 0 0
91 3 5.431612328394728 4.004090277720841 26.64797468860074 0 0 0
92 3 3.726959137649066 1.0252601407309405 25.3186930354984 0 0 0
93 4 4.8872770356255755 4.243966668493671 25.82148250503923 0 0 0
94 4 2.689782085004457 9.057547478161563 23.73254402531471 0 0 0
95 4 2.7656817956735518 5.611640840810372 27.3926331890664 0 0 0
96 4 2.9062468518853315 17.376186518867534 27.5810933472927 0 -1 0
97 3 5.414660851455831 1.3720857766486765 37.47308496078635 0 0 0
98 3 5.4757068293281765 0.8458525907587364 45.594570014658686 0 0 0
99 3 3.05716925388355 0.9781164739265139 39.719454427922315 0 0 0
100 3 7.64150419204185 4.760362970325847 47.607578955166886 0 0 0
101 3 8.001692340900469 5.665407289209456 43.99420703199682 0 0 0
102 3 1.0591356129829188 4.833244432258546 43.7955645190995 0 0 0
103 3 9.667173494409449 0.8824663422007929 46.0494204479313 0 0 0
104 3 7.909291527475499 1.4142641768118058 42.356036761248205 0 0 0
105 3 1.0637762154736596 2.086023670394808 40.733567697878385 0 0 0
106 3 4.2503839432603705 4.730563221419677 36.85133361477385 0 0 0
107 3 5.529944549794995 4.2254816802785005 40.336072448608114 0 0 0
108 3 3.2056630127898202 5.370583389203616 41.46966494392349 0 0 0
109 3 1.8486075521320489 3.967573250452052 46.45739151424017 0 0 0
110 3 7.153475500386037 3.048830138437305 45.52229096882232 0 0 0
111 3 1.5030018374617617 3.6407643291990968 40.55444528222681 0 0 0
112 3 2.909002590355939 5.9991090982903 37.247538613825284 0 0 0
113 3 7.333192484317683 7.0147857724556335 43.448145810857994 0 0 0
114 3 4.707765154873873 6.607713134370079 44.367992964773165 0 0 0
115 3 2.7433145252335533 4.507255537947337 37.23461338354892 0 0 0
116 3 7.096935436845654 3.3161369227878446 40.02723534485181 0 0 0
117 3 3.8135698400520934 3.7692899372282698 46.48386351504408 0 0 0
118 3 1.7072395472721333 0.5373235064235333 48.054208671229446 0 0 0
119 3 6.712953307348522 0.047792811580862335 45.745096524473496 0 0 0
120 3 0.14838417890687705 0.5350021445971003 40.52893476490744 0 0 0
121 2 1.0348973328484314 1.3744647064265691 49.2646883130587 0 0 0
122 2 6.646596144958392 2.1785476260153698 42.51123405271661 0 0 0
123 2 2.1899321659292443 1.2604121818844922 40.98110504206102 0 0 0
124 2 2.9904144998206847 5.114401457789349 35.806327817674536 0 0 0
125 2 7.004736610059328 5.206356475696885 40.3518785901944 0 0 0
126 2 3.1064851084315763 5.826180752201272 42.96592542718738 0 0 0
127 1 4.342240187605355 3.5484059564844976 38.573645680243466 0 0 0
128 1 0.2134536996905222 6.5402827007889845 42.61612581019449 0 0 0
129 1 0.0883821631244561 3.4152385765167073 45.165220836341746 0 0 0
130 1 3.881321443209953 0.3396842034560756 41.69284437284935 0 0 0
131 1 2.955361224950782 1.3578526204526016 46.45821233755065 0 0 0
132 1 2.1537355315963707 1.074923491957018 36.81775799445349 0 0 0
133 1 8.387631538055293 1.5395803364322884 39.9805306679388 0 0 0
134 1 1.8480361568434973 5.1788954264085 39.05129550359753 0 0 0
135 1 2.614668343626395 5.018179193044741 48.070734639124396 0 0 0
136 1 6.097962721552944 4.891260789601846 44.60186214439608 0 0 0
137 3 27.84914660059527 1.7531719344980614 37.15504106846875 -1 0 0
138 3 0.2234760612632193 5.67675338619667 35.132219957994366 0 0 0
139 3 28.218339520614375 4.3581350964880015 35.75233760537241 -1 0 0
140 3 28.14436303046143 0.7236610549468898 38.136887614109426 -1 0 0
141 4 0.031808815289581495 1.1372263832130411 42.19565450197557 0 0 0
142 4 27.724779121450112 6.847919673915919 39.90330939361013 -1 0 0
143 4 26.4000066640384 6.008575408700453 38.094108565112464 -1 0 0
144 4 23.607947080722912 0.5834312975024425 36.87612977452524 -1 0 0
145 3 1.0194124900601893 1.6024972388924346 50.903462366278276 0 0 0
146 3 1.02165437126849 1.258123631707309 54.754477410434106 0 0 0
147 3 7.083583421604033 1.7790664821838376 51.98939416114473 0 0 0
148 3 4.2316432427413595 5.113331834439208 56.99284266194084 0 0 0
149 3 4.79901078887776 5.619885817319831 53.94127115521424 0 0 0
150 3 6.171992979408364 5.530018425929849 55.23709376315735 0 0 0
151 3 4.96361988968713 1.9013419294301375 57.84299956436914 0 0 0
152 3 2.5832045955500647 1.8817845609005124 54.71027950211669 0 0 0
153 3 6.919862104645495 2.043948597511705 54.584755030699284 0 0 0
154 3 0.31673268367886354 4.864886487266958 51.27436940867793 0 0 0
155 3 0.9179559152621353 5.788784826419577 50.62572986936874 0 0 0
156 3 8.714384222637552 4.488392622504483 54.31449157281875 0 0 0
157 3 7.130261651715158 2.150719204122141 59.11138250479226 0 0 0
158 3 2.4743085804621727 3.2857647858476935 56.70554790308029 0 0 0
159 3 5.815379865136641 2.852233136719976 54.04708844414746 0 0 0
160 3 7.845819182104465 6.637094377830103 49.22610535452576 0 0 0
161 3 3.494375646035855 6.70573221417284 53.830597499288416 0 0 0
162 3 8.866476424903485 7.2975425503826825 55.10148189618522 0 0 0
163 3 7.540574480037788 3.8875141020284545 50.00296895692533 0 0 0
164 3 4.482663599923856 3.834911565892198 49.130779594226254 0 0 0
165 3 8.842626854960967 4.08599365025201 56.84740463943412 0 0 0
166 3 6.469580459728714 0.35145340686407633 56.99253683135494 0 0 0
167 3 1.3516575389965926 0.6780617230732189 57.054259645559 0 0 0
168 3 5.000051629852015 20.59986355857819 50.961854141467 0 -1 0
169 2 6.228547718459524 1.0500400237388343 58.37910809813711 0 0 0
170 2 1.7649700332807328 1.9267387568924907 56.11613325043662 0 0 0
171 2 5.891823757024954 1.738532373520276 52.9815479094479 0 0 0
172 2 7.316426086708162 4.953111341036108 48.99840610622907 0 0 0
173 2 3.168269798024694 4.967219530161698 53.6781130331927 0 0 0
174 2 7.755306096399698 4.95558377881072 55.66959694497962 0 0 0
175 1 27.535659743716707 3.510598687851939 51.95400653191193 -1 0 0
176 1 4.683762329285822 7.456964456817146 56.10647655856563 0 0 0
177 1 4.523851519875189 3.1018544176873464 56.05617926751012 0 0 0
178 1 28.16351211062383 20.40535294296402 52.341287282356475 -1 -1 0
179 1 8.429769093282198 1.499426911930693 56.22266408898042 0 0 0
180 1 6.6869425354078365 1.6377544689212924 47.06696879228615 0 0 0
181 1 3.8304117531497934 2.029241472307644 50.492627350745735 0 0 0
182 1 5.956542602304563 4.99917690984981 52.217356140256655 0 0 0
183 1 6.744604847417068 4.975226974343075 57.280279942019675 0 0 0
184 1 1.6935024719190965 5.48427573995875 56.816540316174 0 0 0
185 3 4.899493059920152 1.9323892855457259 47.726577049518596 0 0 0
186 3 4.419933824278891 5.146974224166451 49.617220023083135 0 0 0
187 3 4.298004299815933 5.415459992301296 50.89724065849657 0 0 0
188 3 5.2159678028768335 1.1948563951637166 48.89897524497128 0 0 0
189 4 4.736629714952661 4.736877230195149 46.54301379275958 0 0 0
190 4 6.026747805249217 8.262259955896992 48.05897818313562 0 0 0
191 4 7.03782448337067 4.440678478219587 46.3616702977605 0 0 0
192 4 2.13974575863885 0.3731867160224409 50.58603856174328 0 0 0
193 3 5.603436456196908 8.62022124054 13.870707914577027 0 0 0
194 3 6.234815540113774 8.05136917988784 17.62517853935943 0 0 0
195 3 2.916121307802696 7.796285170496398 18.361521644388617 0 0 0
196 3 8.208704548008823 12.521771309275486 25.54216590021366 0 0 0
197 3 8.336589572273093 12.028656105655804 22.825851821905175 0 0 0
198 3 1.563913916751425 12.729056543871568 21.136894805869268 0 0 0
199 3 9.540258012083532 8.33263421084744 22.211203132243867 0 0 0
200 3 8.151043593315293 8.94765129944282 17.537994142758908 0 0 0
201 3 1.809505227884344 9.093158670123097 20.402418027836877 0 0 0
202 3 4.927822061189232 12.082857879739441 13.911431218225667 0 0 0
203 3 7.222455897789473 11.951815476127164 22.070801337696366 0 0 0
204 3 3.0800006688276356 12.163928341129772 18.63191641938687 0 0 0
205 3 2.2843485432977704 10.619172647903468 24.529427734818427 0 0 0
206 3 6.624134396461376 9.513351903585786 19.970708895286997 0 0 0
207 3 0.6121293815948503 8.875503020357552 17.836425428290667 0 0 0
208 3 2.8467582968091807 13.277066699194565 13.912038444150546 0 0 0
209 3 7.345952860610383 12.487068642119338 17.428722695799717 0 0 0
210 3 4.4321090668419085 13.910550590532841 22.88761875435677 0 0 0
211 3 2.866388954598369 10.786127880971469 13.912053630390831 0 0 0
212 3 7.325654081908859 10.6681940828892 13.910705660770558 0 0 0
213 3 3.577311514448829 10.358416297425837 20.440618960938743 0 0 0
214 3 1.0703744744320987 6.556872372914083 24.04045927961606 0 0 0
215 3 6.595663345781769 7.7339076794266095 19.95684293167784 0 0 0
216 3 0.7267405325536203 7.002293615231542 17.75232769507201 0 0 0
217 2 1.4491934081437168 8.288466825135993 26.3698957124164 0 0 0
218 2 7.377346375326788 8.59521047819196 18.692335453113877 0 0 0
219 2 1.1704004596604312 8.525007209468457 19.079208296203394 0 0 0
220 2 3.69644090768354 12.03436144368392 13.81000063070282 0 0 0
221 2 6.607205546392055 12.135873244306005 18.855251975572887 0 0 0
222 2 3.0763389460992916 11.942589041927132 20.285580529588202 0 0 0
223 1 4.893831854880254 10.46674575211293 17.60579858412818 0 0 0
224 1 27.332503900556446 13.229831147588703 22.46524245122385 -1 0 0
225 1 27.895792344547793 10.034996453378124 23.755725360421017 -1 0 0
226 1 4.7544872425206 6.983199188919514 17.314933498788534 0 0 0
227 1 3.4196613033705456 8.414603887351392 21.793970131020583 0 0 0
228 1 2.2698402773285906 8.413107824860036 13.832299630642396 0 0 0
229 1 8.411035207767275 8.537891260227552 13.80094295713353 0 0 0
230 1 1.4803929649473393 12.347112978032401 17.521865882469395 0 0 0
231 1 2.501337558102571 12.214380040178602 25.990285075071345 0 0 0
232 1 6.067056882938167 12.399119891450237 23.61610803559686 0 0 0
233 3 28.242519159153723 8.947036678198527 13.881684164865057 -1 0 0
234 3 28.252756737358073 12.455553788168482 13.884008168140413 -1 0 0
235 3 28.25037854566968 11.666924416108351 13.87926524470013 -1 0 0
236 3 0.13311104379034977 8.230887793146955 13.883185394819552 0 0 0
237 4 0.001358191076261856 9.899482287136854 13.84734590600775 0 0 0
238 4 0.0008812592717153545 13.341392942211359 13.847345917626004 0 0 0
239 4 0.0004946398911745267 10.735116875077846 13.84746020245777 0 0 0
240 4 28.271003112634272 7.2955680708732435 13.847281342909751 -1 0 0
241 3 0.043629687926117273 9.301757197229156 26.984422475777574 0 0 0
242 3 0.18479854850842697 8.272315969605385 31.954800722992108 0 0 0
243 3 7.696750717093909 8.328291294207743 28.973950022798075 0 0 0
244 3 3.540047028926554 10.578600867675167 35.08315291803247 0 0 0
245 3 4.0720101004924025 12.080415579444072 30.385682709748355 0 0 0
246 3 6.420584131456532 12.3907294426749 31.972165680906468 0 0 0
247 3 4.539757992267655 7.7813493186344385 39.33436833722647 0 0 0
248 3 2.750032832714821 8.898615358818875 30.259458349759996 0 0 0
249 3 6.52461049783988 9.060970584484641 31.374535357882248 0 0 0
250 3 0.9268216337467023 11.944505458075463 27.820344027839955 0 0 0
251 3 0.5371387391617146 12.265224345927829 30.89495939199767 0 0 0
252 3 7.654646189782163 12.648520133010805 27.93130064448102 0 0 0
253 3 6.328250399760328 9.822800131377477 34.24901203786966 0 0 0
254 3 2.142494176377984 9.875860599001577 34.92064017536906 0 0 0
255 3 4.639967487214895 10.220581110481014 26.885342270148847 0 0 0
256 3 7.7980837923878825 13.599085650386947 26.749333855308006 0 0 0
257 3 3.0280817573402596 12.921052746534144 28.420611758139394 0 0 0
258 3 8.038733759465455 12.706793349564938 29.528091965089303 0 0 0
259 3 7.6936382142443716 11.060932219202808 27.38173845533344 0 0 0
260 3 1.7210961110543663 9.993502267764043 29.77614451230668 0 0 0
261 3 8.318027987983472 10.876170196524098 32.67042735691763 0 0 0
262 3 6.591143185410064 6.939269791755308 34.139357852240806 0 0 0
263 3 1.704740666761554 9.002664357179508 33.74857791562857 0 0 0
264 3 5.022458910895308 7.401375012356095 29.40964803519696 0 0 0
265 2 6.235249228023609 8.768203284589896 35.477032865585564 0 0 0
266 2 2.565452245910996 8.764128249555151 31.794620613940356 0 0 0
267 2 5.9957780813324915 7.21814669670312 30.457148406959465 0 0 0
268 2 8.208990377578385 11.869116791686508 26.774339518161263 0 0 0
269 2 2.650753608009155 12.209635379015584 29.64278932732128 0 0 0
270 2 7.30647966446067 11.27449190777397 31.68584139363625 0 0 0
271 1 28.235211402623893 9.720504424958866 30.793393529518678 -1 0 0
272 1 4.651094562145909 14.246186949603795 31.581784290027677 0 0 0
273 1 4.7182705079390574 11.080371703078624 33.58751803518406 0 0 0
274 1 0.04710485307035913 6.7254379864314195 30.579762930546856 0 0 0
275 1 8.36109539106211 8.546550389430484 32.94290509017347 0 0 0
276 1 7.117483343000346 9.309402446437923 22.442821365307722 0 0 0
277 1 3.6914091838661167 9.029716061326697 28.225510992674593 0 0 0
278 1 5.81405223330269 12.02532606868122 29.072498336699404 0 0 0
279 1 7.131345467421568 11.806896988941318 37.945916069966366 0 0 0
280 1 0.8019621710944627 12.032896032491054 33.687284910430364 0 0 0
281 3 4.064955640064764 8.877581003462227 23.73341065354583 0 0 0
282 3 4.862540481912986 12.497514038804814 25.880193546515414 0 0 0
283 3 4.610231292892145 11.623923334281736 26.945008578176513 0 0 0
284 3 5.174169381293381 8.882674842416748 24.660065158352996 0 0 0
285 4 3.9413363556211607 9.358682707846985 24.825111348178268 0 0 0
286 4 3.6560516476753038 9.219592298433003 25.57564299361911 0 0 0
287 4 6.807325564177397 10.105703281886157 31.450015526502405 0 0 0
288 4 4.671740325799789 6.5991675961356915 24.790472359501553 0 0 0
289 3 5.4373438074269 8.269723634308791 40.269495670557674 0 0 0
290 3 5.298754783321222 9.088840874405383 45.48028629479346 0 0 0
291 3 2.77871140847752 7.459079411570488 42.79678287912556 0 0 0
292 3 8.436675056972911 12.694827593531775 47.0171573878543 0 0 0
293 3 8.324464122052264 12.524752433894134 43.371022521916515 0 0 0
294 3 1.8966129051003977 11.524987305030862 45.141768368877145 0 0 0
295 3 9.510231485927788 8.919248920295372 48.34811870759292 0 0 0
296 3 8.139042187299301 8.069979918723588 46.14677390147129 0 0 0
297 3 1.59329401830921 9.739762482607203 42.80842687569816 0 0 0
298 3 4.9222096206244155 12.61875376343877 36.89348030474271 0 0 0
299 3 5.693792662388355 11.7358001658198 39.619899116723296 0 0 0
300 3 3.5273186715295295 12.486648087054698 40.07342799248768 0 0 0
301 3 2.7915588570044143 10.075383074312324 46.862356592723856 0 0 0
302 3 6.066940534717178 9.955073969781175 46.18088093838554 0 0 0
303 3 0.912323950294043 9.93694963180047 40.02380757848961 0 0 0
304 3 2.662209186102745 13.30381442360408 36.118912738399274 0 0 0
305 3 7.415506190825682 13.875816858740823 38.889066128654456 0 0 0
306 3 4.130153325298483 12.916341902834349 46.05376405710665 0 0 0
307 3 2.6451662013605755 11.142095329944828 37.81631335833225 0 0 0
308 3 7.373157587166405 10.088569576879149 42.79273022408637 0 0 0
309 3 3.921678303351097 11.019420329076093 41.901222688092474 0 0 0
310 3 0.9331204804712825 7.085961175439826 47.80748016254361 0 0 0
311 3 5.806987484800401 6.864395199061031 46.97875212618047 0 0 0
312 3 0.7539475204156943 6.496339448064431 40.36179515964034 0 0 0
313 2 1.3516447645821794 8.696413952728198 47.769248243776275 0 0 0
314 2 6.77834424496257 8.721746984723596 45.02976259531753 0 0 0
315 2 1.3451484625894672 9.537702379250183 41.32631595052004 0 0 0
316 2 3.363566035491409 12.249244363669169 36.94739166178016 0 0 0
317 2 7.724304260498047 11.692816076327132 42.01836509870893 0 0 0
318 2 2.9336398224164926 12.260702174144024 41.71278016715464 0 0 0
319 1 4.46835704764675 10.165359880975588 39.53797051880521 0 0 0
320 1 0.21764023673954272 14.015051902321096 44.519633521804636 0 0 0
321 1 28.165817912658255 10.067681934073992 44.891798072634316 -1 0 0
322 1 4.6990764509490885 6.411823323495134 41.75637374072835 0 0 0
323 1 3.6170455567007416 8.578311727801532 44.63023847480545 0 0 0
324 1 2.2965029535630164 8.344218969533705 36.83826882138108 0 0 0
325 1 7.897039974008807 8.377414880146054 40.62778255817199 0 0 0
326 1 1.106719967244712 12.03388506369793 39.01926971177537 0 0 0
327 1 2.1169524254134218 12.426239526438925 47.37093137626759 0 0 0
328 1 5.372581864909087 12.110254646795955 44.61038847428882 0 0 0
329 3 27.973137204461505 8.990438173908464 37.951316632618315 -1 0 0
330 3 28.07489343359366 12.55384187245206 37.16448657691373 -1 0 0
331 3 0.15405845998455261 11.962267013609136 35.92065884212977 0 0 0
332 3 1.0582555941438156 7.788431705535412 38.20632748246095 0 0 0
333 4 27.96169110798253 10.906375087340969 35.7368065913064 -1 0 0
334 4 23.585680358391276 15.797160455760613 38.16583338171958 -1 0 0
335 4 27.14540088993949 12.21721626369163 37.468111212161254 -1 0 0
336 4 3.3154991725590244 9.225915351637715 31.025322199620916 0 0 0
337 3 1.1517506642064883 9.226836987270127 49.18963065667896 0 0 0
338 3 1.6634842999179513 8.795024090807443 52.97482785145131 0 0 0
339 3 7.635657128120504 8.389793013439965 52.313285509000025 0 0 0
340 3 3.2037875288350164 12.147547006448377 57.09939319947486 0 0 0
341 3 3.1778206412666368 10.979126768475691 51.830785287310675 0 0 0
342 3 5.738859537855208 11.970382812447005 55.99188948262136 0 0 0
343 3 4.7004364955968905 9.097897881255323 57.6812894729422 0 0 0
344 3 3.014408929947104 9.046167680151273 53.6725699259934 0 0 0
345 3 7.142945547955532 8.87322108856066 54.72605673731553 0 0 0
346 3 0.8639453620824841 11.711058820689374 48.772666144187355 0 0 0
347 3 0.2587397943920136 11.191022097571777 52.98571769304755 0 0 0
348 3 8.019750732744551 11.971580004658362 55.01192669216242 0 0 0
349 3 6.674015970163693 9.57716318825646 58.24830096957082 0 0 0
350 3 2.7605006306810944 10.305325132344688 54.548138753979885 0 0 0
351 3 4.768468859260039 9.116467416586001 49.49483477517421 0 0 0
352 3 6.472465821100001 13.646189295619575 49.85954646008405 0 0 0
353 3 1.8628465878321372 13.469973533248094 50.47813483649415 0 0 0
354 3 8.993681437353617 12.60519094686893 57.36524659343337 0 0 0
355 3 7.910698525570222 10.505400257554289 52.35280335679555 0 0 0
356 3 3.288137034582882 10.915253192139502 47.78890207157548 0 0 0
357 3 9.406844948264986 10.644093014858129 56.90137750518906 0 0 0
358 3 6.618351541690123 7.920548888127856 58.251821705240886 0 0 0
359 3 1.8966903423289172 7.946449325874621 55.76440234572516 0 0 0
360 3 6.096111373625827 7.685890169023887 52.17248909342892 0 0 0
361 2 5.502497052911903 9.068795453029258 59.0522905189264 0 0 0
362 2 2.092664817489188 8.353431690713714 54.40975670236109 0 0 0
363 2 6.599496961127899 8.283496607561544 53.51521946455773 0 0 0
364 2 8.052722341347927 11.277279895072047 50.94153964502314 0 0 0
365 2 2.4817481742135747 12.332297869169853 51.400902212452465 0 0 0
366 2 8.365165732571635 11.700114209041766 56.413581340433154 0 0 0
367 1 28.223881484224094 10.404415640419785 50.585651669913204 -1 0 0
368 1 4.745735042991711 13.441567782199472 55.567562544820376 0 0 0
369 1 4.116578920904177 10.327243162104404 55.9930986410846 0 0 0
370 1 28.0415808766321 7.44589641297817 50.1318476254345 -1 0 0
371 1 8.147083189274019 8.622683439218223 56.81144431107428 0 0 0
372 1 7.079891069754802 8.629399673306017 50.15709844417924 0 0 0
373 1 3.6802808198354326 9.04477360973281 51.49915297918646 0 0 0
374 1 5.573519236279427 12.004658257046325 49.06412375121903 0 0 0
375 1 7.098840281385987 11.930774786326703 57.52445154237216 0 0 0
376 1 1.6400498062918114 12.416141458848456 55.88231248647021 0 0 0
377 3 5.133367195261105 9.56920940130579 48.20158895359074 0 0 0
378 3 4.206420789029478 12.314875224872647 47.351164025119786 0 0 0
379 3 3.592540448320396 11.982322774549298 48.92438929451488 0 0 0
380 3 4.835253036132457 9.032265999096115 46.83711366520795 0 0 0
381 4 8.290974460004069 7.644582233126354 46.95201455304134 0 0 0
382 4 3.076211685099149 10.727901867134332 47.05573276890665 0 0 0
383 4 2.0372198753620676 10.868135425435765 44.5483693138172 0 0 0
384 4 6.029113464381049 7.454674817444574 47.78226466057153 0 0 0
385 3 5.651867766409741 15.40162869031096 13.874880306339671 0 0 0
386 3 5.211933215150067 15.376856939083957 19.8806701836095 0 0 0
387 3 3.6132881571580864 15.712667051951142 17.24071955476206 0 0 0
388 3 8.767344545391342 19.34531853004901 24.41706854540753 0 0 0
389 3 8.912965555278538 18.987815169390803 15.588478692959235 0 0 0
390 3 1.7544886940319862 19.008506903192337 21.51885525646813 0 0 0
391 3 9.516464316142168 15.776589658615228 23.94378272025982 0 0 0
392 3 7.209703031481674 15.653593630744089 19.22866214297247 0 0 0
393 3 2.142428361977969 15.25871294649335 21.225187524278024 0 0 0
394 3 4.963161323007785 18.914964537370622 13.912138503633104 0 0 0
395 3 6.616518749339972 18.416877273674917 18.394798071415845 0 0 0
396 3 3.6631371633810637 18.239072394900642 19.289091526468976 0 0 0
397 3 1.9064900592449734 16.594995079540904 25.269717093277034 0 0 0
398 3 6.94990812696221 16.125190923685107 21.798744022803724 0 0 0
399 3 0.79689868675315 16.92572651530347 18.358609083543193 0 0 0
400 3 2.835796341484028 20.138535766077574 13.911744895386565 0 0 0
401 3 7.312907895640201 20.077106950448336 13.844974579357935 0 0 0
402 3 3.3344792369802065 20.327031412988347 21.23505456690891 0 0 0
403 3 2.8000473201208655 17.66214188552489 13.911562489932724 0 0 0
404 3 6.57220854626169 17.252549080044112 17.66482972007373 0 0 0
405 3 4.29524599825816 16.901351514426914 22.192584514101835 0 0 0
406 3 2.0303311501422256 14.24346840663306 25.588362809933145 0 0 0
407 3 6.096900658087068 14.559716067084652 24.227320813477228 0 0 0
408 3 0.6237232309751589 13.047252206025375 18.291773054376563 0 0 0
409 2 0.732531635648804 15.902805001611428 25.95621262949718 0 0 0
410 2 6.333922576427587 15.884392382099202 20.548209736562676 0 0 0
411 2 1.7108540558092589 15.088247937002727 19.680158068293807 0 0 0
412 2 3.588166928875945 18.95408580488888 13.810035039125212 0 0 0
413 2 7.364164020423947 19.171308968174817 15.043379365925887 0 0 0
414 2 3.8124863636883144 19.071119410649427 20.56110941396629 0 0 0
415 1 4.725991638037171 16.613739343664673 17.68089881953248 0 0 0
416 1 0.4994652884812848 20.56037000594548 20.39267258543741 0 0 0
417 1 27.85896709872318 16.903791362250544 20.531817049796526 -1 0 0
418 1 4.214184239426109 13.824061775332082 17.92749607113862 0 0 0
419 1 3.3303305144681437 15.924754277493136 24.260140216458986 0 0 0
420 1 2.3969078161680533 15.444840609729827 13.842408449254282 0 0 0
421 1 8.030147152562739 15.558299176724265 17.00162994848287 0 0 0
422 1 1.2055596690101296 18.87686573108665 13.938794367035218 0 0 0
423 1 2.3857971848096495 19.01362624991498 23.527987678448262 0 0 0
424 1 6.109299681868507 18.99203802628924 22.977451610698985 0 0 0
425 3 0.06506542258336383 15.782734255122794 13.884471661831482 0 0 0
426 3 0.009996321547996751 19.31909522672967 13.88356673121143 0 0 0
427 3 28.23391156511827 18.559897022055107 13.884843618598463 -1 0 0
428 3 28.2052638040308 15.147815817539234 13.882204187063342 -1 0 0
429 4 0.0004815071497688919 16.7819023413062 13.847376911520753 0 0 0
430 4 28.271279055563223 20.217621281116486 13.84743394378864 -1 0 0
431 4 28.27177303023387 17.617106925319668 13.847379040520226 -1 0 0
432 4 0.00039265403643775953 14.174898281994652 13.847334926245393 0 0 0
433 3 0.9807629822906474 15.93143022260599 27.453181173791876 0 0 0
434 3 0.7808674050286074 15.154534654004445 32.711478921869876 0 0 0
435 3 7.3240749174043325 16.269605014279776 27.68776962365706 0 0 0
436 3 3.7828455455567376 18.214443294047758 37.40810512405472 0 0 0
437 3 4.48890571765626 20.038376947085997 29.43999112438346 0 0 0
438 3 7.071576818715395 20.18637439091587 31.88699376444114 0 0 0
439 3 5.651915389352406 15.988998098565222 33.02398372426095 0 0 0
440 3 3.1243159185769693 15.314509685708316 31.291646727742588 0 0 0
441 3 7.2597527596295235 15.046019053694764 27.886798931015406 0 0 0
442 3 0.5534643201649603 19.87847516472885 26.691934144633926 0 0 0