1731
 Atoms. Timestep: 43820
O 5.60797 1.7632 13.9009
O 5.43152 1.85085 19.0173
O 2.9852 1.7076 17.5629
O 8.46058 5.10795 22.0955
O 8.59337 5.19289 19.0004
O 1.46582 4.93894 20.2046
O 9.1347 1.82043 22.0001
O 8.01294 1.83281 19.1277
O 1.50865 1.63459 19.6602
O 4.96793 5.15849 13.9722
O 6.28895 4.899 19.1983
O 2.9537 5.17319 18.1466
O 1.89453 2.85328 22.8815
O 6.57749 2.92923 21.0218
O 0.706485 3.29992 17.6612
O 2.83565 6.38964 13.9194
O 7.28956 6.27784 16.4906
O 3.92014 6.48366 21.0339
O 2.7966 3.90636 13.8674
O 7.21595 4.20997 17.1194
O 3.7424 4.02778 20.0833
O 1.60759 0.517432 22.4404
O 6.59674 0.268875 20.6659
O 0.599629 0.460095 17.6302
P 1.09515 1.68259 23.1819
P 6.96733 1.65668 20.1106
P 1.57014 1.73028 18.0831
P 3.65101 5.1689 13.8394
P 7.30094 5.10998 18.1173
P 2.91967 5.25755 19.7404
Ca 4.70709 3.38414 17.7888
Ca 0.0874925 6.99671 20.9057
Ca 0.0285215 3.51776 20.6762
Ca 4.74593 0.000856428 17.8217
Ca 3.47657 1.61753 20.8648
Ca 2.41905 1.72288 14.1358
Ca 8.25946 1.7376 13.8224
Ca 1.15562 5.23202 17.1788
Ca 2.53835 5.15967 23.2378
Ca 5.90458 5.11981 21.2902
O 0.0356138 2.0415 13.9685
O 0.0861713 5.48623 13.9643
O 28.2601 4.78169 13.963
O 0.0451399 1.27915 13.9664
H 28.2716 3.02212 13.8525
H 28.2716 6.46113 13.8533
H 0.00072059 3.85496 13.852
H 0.00046027 0.420397 13.8534
O 0.785799 1.87585 24.7
O 0.872344 1.6877 27.8356
O 7.56973 1.78237 26.1712
O 3.84289 5.4212 30.5941
O 3.73244 5.02981 27.7932
O 6.51345 5.45755 27.8525
O 4.24907 1.76813 30.8196
O 3.20463 1.74278 27.8228
O 6.62656 1.69338 28.1643
O 0.338237 5.30905 24.0031
O 1.5555 5.16108 27.3899
O 7.66065 5.14044 26.7905
O 6.89468 3.02113 31.2131
O 2.09619 2.9177 29.8779
O 5.47593 2.77083 25.9801
O 7.58787 6.35595 24.3222
O 2.65648 6.33786 25.6258
O 8.55327 6.54124 28.8641
O 7.66223 3.82468 24.2395
O 2.33595 3.94098 25.7889
O 8.40354 4.18235 29.5167
O 6.61944 0.276834 31.0304
O 1.97335 0.741534 29.8903
O 5.713 0.677551 24.5415
P 5.71642 1.64177 31.5835
P 2.04838 1.72684 28.8384
P 6.21168 1.72796 26.725
P 8.23031 5.17889 23.7302
P 2.77318 5.26407 26.6028
P 8.03005 5.12315 28.376
Ca 0.0739717 3.32754 25.9829
Ca 4.63236 7.02544 29.3671
Ca 4.64964 3.59932 29.4481
Ca 28.0638 20.5939 26.2663
Ca 8.34524 1.74041 29.5882
Ca 7.01545 1.79427 23.2548
Ca 3.34991 1.5135 25.7373
Ca 5.97499 5.35689 25.6411
Ca 7.0401 5.13332 32.0973
Ca 1.27731 5.05075 29.5015
O 4.63692 2.10601 22.7028
O 4.52791 5.73812 23.863
O 4.92979 4.55923 23.1339
O 4.41388 1.25916 23.9134
H 4.76505 3.39131 23.0142
H 4.09998 7.24668 21.9536
H 4.12295 4.38856 25.8514
H 4.16549 19.9418 24.7408
O 5.53978 1.61453 33.1015
O 5.50766 1.45527 36.8803
O 3.03152 1.49529 34.5887
O 8.26941 5.03853 39.3241
O 8.42902 5.31244 36.2325
O 1.50019 5.06058 37.7446
O 9.3241 1.46635 39.431
O 8.01266 1.62729 36.8572
O 1.44836 1.8306 37.1042
O 4.74579 5.02951 32.7564
O 5.91247 4.87665 35.7782
O 3.1297 5.22321 35.6554
O 1.8699 3.26161 40.0475
O 6.85958 2.98355 38.6743
O 1.0217 3.1627 36.0796
O 2.8559 6.27499 32.8314
O 7.38255 6.58238 34.5304
O 4.1439 6.45918 37.45
O 2.80575 4.10037 32.9352
O 7.31104 3.73988 34.2928
O 3.87327 3.87702 37.6627
O 1.82712 0.500335 39.6484
O 6.72626 0.352179 38.4465
O 0.611729 0.499632 35.1517
P 1.08014 1.61525 40.4078
P 6.70486 1.85861 37.665
P 1.77441 1.58073 35.5198
P 3.42403 5.14568 32.0756
P 7.28445 5.17351 35.2318
P 3.11447 5.3611 37.2845
Ca 4.60009 3.46622 34.4624
Ca 0.0646017 6.77025 37.7861
Ca 0.0267489 3.43839 38.2191
Ca 4.4606 0.109042 35.3383
Ca 3.39305 1.61022 38.4246
Ca 2.29446 1.52459 32.1129
Ca 8.25502 1.66522 34.6626
Ca 1.34661 5.1652 34.3815
Ca 2.43461 5.11655 41.0617
Ca 5.98679 5.07814 37.8969
O 28.144 1.98027 31.4123
O 0.067635 5.56628 32.2617
O 28.2558 4.66639 31.2097
O 28.2334 1.16788 32.4861
H 0.00962694 2.45106 36.4008
H 28.1064 6.57793 32.1549
H 27.7054 4.50869 31.8373
H 26.8604 0.468237 32.0334
O 0.923648 1.68426 41.9687
O 0.873724 1.58004 45.344
O 7.53603 1.7377 43.6267
O 3.9515 5.14535 48.2016
O 4.17381 5.29866 45.3907
O 6.33351 5.27146 46.3612
O 4.61466 1.77471 49.0014
O 3.11481 1.76879 45.5427
O 6.50662 1.81787 46.086
O 0.269356 5.07016 41.7694
O 1.23073 5.34978 44.6517
O 8.08282 4.95622 44.4871
O 6.75431 2.71174 49.2304
O 2.15752 3.05526 47.3187
O 5.61276 2.92405 44.9911
O 7.63594 6.46807 41.276
O 2.93482 6.48885 43.1049
O 8.68845 6.66796 46.3584
O 7.54356 3.91281 41.6442
O 3.23392 3.89689 43.247
O 8.68123 3.97288 46.7766
O 6.55435 0.444081 48.7496
O 1.81775 0.542929 47.4235
O 5.366 0.326475 44.181
P 5.93792 1.51706 49.8264
P 1.94153 1.7824 46.4396
P 6.1807 1.72543 44.4237
P 8.01921 5.09686 40.8545
P 2.83743 5.10113 44.2346
P 7.80735 5.09761 46.0095
Ca 28.0491 3.45478 43.1319
Ca 4.70345 7.04768 46.89
Ca 4.65506 3.34355 47.5268
Ca 28.2392 20.5731 43.4827
Ca 8.33579 1.65307 47.3248
Ca 6.95234 1.69493 40.9605
Ca 3.58986 1.81342 43.3405
Ca 5.87597 5.1108 43.7781
Ca 6.97045 5.10356 48.8642
Ca 1.36786 5.25762 47.3882
O 4.76874 2.03451 40.0876
O 4.62361 5.40594 39.9684
O 4.5867 4.98638 41.4293
O 4.86453 1.31048 41.3791
H 4.71945 3.54049 39.8209
H 5.10991 7.00598 38.5572
H 5.41591 4.03417 40.6662
H 3.93351 0.404607 41.6338
O 5.6018 8.61647 13.952
O 5.7374 8.43309 18.9714
O 2.98883 8.35588 17.8853
O 8.44107 12.1846 22.2999
O 8.53038 12.0353 19.0995
O 1.65296 12.2473 20.5827
O 9.28569 8.51821 22.6186
O 8.08582 8.70434 19.2005
O 1.67406 8.74838 19.8559
O 4.93413 12.0743 13.9874
O 6.4247 12.0121 19.4307
O 3.09166 12.0763 18.3078
O 2.00178 10.0718 23.1306
O 6.69938 9.73711 21.0921
O 0.752081 9.54406 17.8123
O 2.8427 13.2761 13.9183
O 7.38641 13.0356 17.2029
O 4.06047 13.4665 20.0132
O 2.8537 10.7924 13.8704
O 7.33047 10.6765 13.944
O 3.80177 10.6683 20.349
O 1.63437 7.11922 22.8028
O 6.69076 7.47545 21.1272
O 0.786768 7.25403 17.7868
P 1.20553 8.50484 23.4481
P 6.92602 8.59768 20.1225
P 1.46585 8.57643 18.3792
P 3.65336 12.0364 13.8539
P 7.16414 12.0678 18.2993
P 3.10534 12.0093 19.9769
Ca 4.76703 10.3571 17.6861
Ca 27.9877 13.5919 20.3496
Ca 28.1581 10.2389 21.1085
Ca 4.72486 6.91677 17.5981
Ca 3.53357 8.54302 20.3156
Ca 2.29852 8.47525 14.1366
Ca 8.34573 8.5565 17.0009
Ca 1.23535 12.1317 17.2054
Ca 2.40031 12.0916 23.4442
Ca 5.97743 12.1475 21.5415
O 28.252 8.95052 13.9638
O 28.259 12.4368 13.9665
O 28.2574 11.6709 13.9611
O 0.0901921 8.23372 13.9656
H 0.00135819 9.89948 13.8527
H 0.000881259 13.3414 13.8527
H 0.00049464 10.7351 13.8535
H 28.271 7.29557 13.852
O 0.628327 8.81152 24.8447
O 0.620449 8.49995 28.1153
O 7.72161 8.5169 26.2909
O 3.74219 11.5965 30.9073
O 3.95379 12.051 27.6425
O 6.40875 12.1449 29.5309
O 4.48637 8.35136 31.1923
O 3.1653 8.6895 28.0279
O 6.387 8.73864 28.1657
O 0.453999 12.0099 24.426
O 1.11548 12.1069 27.3535
O 7.76209 12.2229 26.9611
O 6.51158 9.83076 31.0912
O 2.0571 9.84682 29.872
O 5.25702 9.95115 25.9373
O 7.62149 13.3722 24.3802
O 2.79369 13.167 25.5595
O 8.43793 13.1021 28.2856
O 7.58988 10.8809 24.6526
O 2.39813 10.5579 25.9269
O 8.52246 10.825 29.2509
O 6.59115 7.23495 31.1752
O 1.92461 7.85944 30.1318
O 5.37278 7.37481 25.6029
P 5.93994 8.65004 31.7374
P 2.18379 8.6488 28.9357
P 6.21216 8.18091 26.518
P 8.28935 11.9871 23.8827
P 2.68081 12.0901 26.675
P 7.67151 11.8071 28.8104
Ca 28.2609 10.1313 26.8646
Ca 4.69357 13.8995 29.1434
Ca 4.7139 10.5553 29.3902
Ca 0.0142563 6.83876 26.262
Ca 8.31501 8.58295 29.3435
Ca 7.08265 8.81383 23.0614
Ca 3.54779 8.72918 25.3506
Ca 5.83284 12.0343 26.3515
Ca 7.0875 11.9682 32.0227
Ca 1.09804 12.0366 29.6837
O 4.51617 8.93355 22.123
O 4.75756 12.4277 23.1089
O 4.6812 11.6624 24.5307
O 4.85188 8.43427 23.4257
H 4.47876 9.73635 23.8112
H 4.39242 12.0928 23.8482
H 5.34615 10.5458 24.9237
H 4.69982 7.08597 24.0642
O 5.54665 8.49917 33.2943
O 5.4541 8.74708 36.4495
O 2.94725 8.25383 34.9948
O 8.51006 12.237 39.3266
O 8.52671 12.1855 36.3058
O 1.75365 11.8829 37.8814
O 9.2766 8.69575 39.4089
O 8.08219 8.43872 36.6555
O 1.60862 8.94408 37.0424
O 4.94912 12.2139 33.0966
O 5.96205 11.9467 35.7212
O 3.22704 12.174 35.6362
O 2.15529 9.90721 39.8107
O 6.53074 9.8708 38.7259
O 0.842935 9.86531 34.5556
O 2.78121 13.2828 32.7912
O 7.40746 13.4559 34.4554
O 3.96908 13.1656 38.993
O 2.77605 10.9055 33.1252
O 7.39464 10.5866 34.2657
O 3.90599 10.8683 37.5531
O 1.59283 7.27935 39.5194
O 6.45207 7.21229 38.1077
O 0.795002 7.1009 35.3086
P 1.17601 8.62831 40.1503
P 6.74474 8.63598 37.4317
P 1.51873 8.88292 35.5025
P 3.53696 12.1021 32.4002
P 7.50223 11.9337 35.1973
P 3.06215 12.1056 37.1876
Ca 4.63826 10.2659 34.5594
Ca 0.0658688 13.8296 37.6445
Ca 28.2399 10.2488 37.637
Ca 4.70809 6.74385 34.4482
Ca 3.59331 8.59256 38.0938
Ca 2.33766 8.52172 32.671
Ca 8.10654 8.53176 34.4144
Ca 1.12225 12.0369 34.2502
Ca 2.28398 12.1557 40.3491
Ca 5.76725 12.06 38.0266
O 28.1815 8.9677 31.952
O 28.2123 12.4447 32.6725
O 0.0466258 11.7648 31.5063
O 0.320281 8.1031 33.0039
H 28.1781 10.2048 32.2211
H 26.8537 14.0835 31.6404
H 27.931 11.1848 32.126
H 1.00344 7.88096 30.3102
O 0.9637 8.78884 41.6775
O 1.06797 8.65815 44.866
O 7.70312 8.53551 43.5201
O 3.64042 12.0713 47.6874
O 3.68316 11.7177 44.6322
O 6.20242 12.0177 45.9792
O 4.535 8.74982 48.3935
O 3.24531 8.73416 45.2952
O 6.57414 8.68182 45.79
O 0.43497 11.9392 41.4419
O 1.03122 11.7818 44.2732
O 7.87259 12.0181 44.1472
O 6.61623 9.75642 48.5312
O 2.24414 9.9768 46.8045
O 5.29591 9.61699 42.5567
O 7.2203 13.3864 41.2212
O 2.44103 13.3331 42.9221
O 8.72694 13.0714 46.4404
O 7.65558 10.7128 41.6127
O 2.8724 10.8368 41.9109
O 8.85199 10.7548 46.1728
O 6.59938 7.53194 49.2315
O 1.9827 7.53978 47.2597
O 5.69772 7.46092 43.4689
P 5.71818 8.74101 49.4662
P 2.0407 8.5245 46.1596
P 6.39488 8.50334 44.2424
P 8.24205 11.8079 40.7853
P 2.62966 12.1272 43.6607
P 7.99192 11.9359 45.6734
Ca 28.2574 10.3383 43.0103
Ca 4.72221 13.656 47.0127
Ca 4.5318 10.3274 46.9768
Ca 28.2023 7.05681 43.3442
Ca 8.25024 8.60599 47.2228
Ca 7.07127 8.60803 41.3732
Ca 3.54443 8.73374 43.223
Ca 5.76004 12.0281 43.3209
Ca 7.07766 12.0057 48.3112
Ca 1.35168 12.1526 47.15
O 4.83953 9.14287 41.2731
O 4.55899 12.3724 40.0772
O 4.3732 11.7709 41.795
O 4.7493 8.47955 39.9427
H 5.79518 9.21758 39.4681
H 4.21693 12.5493 41.2552
H 3.90248 10.7765 41.464
H 5.11062 7.34489 39.3501
O 5.642 15.4146 13.9564
O 5.42782 15.4472 19.2196
O 3.19983 15.5488 17.5461
O 8.61014 19.0468 21.7431
O 8.70482 18.9386 18.7282
O 1.71064 18.9449 19.9372
O 9.27849 15.5682 22.2002
O 7.80093 15.531 19.2588
O 1.77482 15.4115 19.7204
O 4.96271 18.9154 13.985
O 6.24132 18.7658 18.7565
O 3.26815 18.712 17.8522
O 1.88742 16.6774 22.5104
O 6.79797 16.5353 21.3634
O 0.808001 16.7775 17.9703
O 2.83504 20.1422 13.9355
O 7.34448 20.1033 17.0258
O 3.72827 20.2055 20.2384
O 2.81048 17.6684 13.9063
O 7.15223 17.5519 17.2743
O 4.01905 17.4456 19.868
O 1.9249 14.2426 22.8234
O 6.53981 14.3384 21.1289
O 0.75559 13.8806 17.9501
P 0.988633 15.6064 23.1942
P 6.61023 15.6008 20.2268
P 1.62941 15.3599 18.1616
P 3.60047 18.9352 13.8538
P 7.39323 18.9941 17.8931
P 3.32814 18.9638 19.5931
Ca 4.71623 17.0146 17.7089
Ca 0.151163 20.6076 20.5867
Ca 28.147 17.1148 20.6537
Ca 4.56134 13.7842 17.7835
Ca 3.50653 15.613 21.082
Ca 2.38305 15.4559 14.1357
Ca 8.14683 15.5021 17.0087
Ca 1.18513 18.8876 17.0002
Ca 2.36535 18.9464 22.7568
Ca 5.99022 18.9399 21.1851
O 0.0440823 15.8002 13.967
O 0.00677298 19.3053 13.966
O 28.2462 18.5593 13.9674
O 28.2268 15.1384 13.9644
H 0.000481507 16.7819 13.8529
H 28.2713 20.2176 13.8533
H 28.2718 17.6171 13.8529
H 0.000392654 14.1749 13.8526
O 0.911951 15.6151 24.703
O 0.80085 15.3799 27.963
O 7.60881 15.7174 26.0753
O 3.81567 18.7045 30.9056
O 4.07996 19.2566 27.5053
O 6.60577 19.3014 29.3125
O 4.82297 15.6325 30.6742
O 3.27857 15.4283 28.0575
O 6.60949 15.3471 28.2763
O 0.341002 19.2082 24.2103
O 1.29338 18.9286 27.6758
O 7.83047 19.1037 26.7999
O 6.5887 16.6854 31.3246
O 2.0778 16.6096 29.8894
O 5.68757 16.7927 26.0274
O 7.62428 20.2578 23.6052
O 2.66866 20.3335 25.1816
O 8.91909 20.3261 28.5038
O 7.43602 17.6558 23.5266
O 2.75058 17.3588 26.4449
O 8.68329 17.6256 28.784
O 6.70096 14.1832 31.1939
O 1.92771 14.2518 29.8646
O 5.4008 14.4266 26.4787
P 5.91047 15.3594 31.6959
P 2.1105 15.5103 28.9653
P 6.18746 15.6303 26.7726
P 8.25257 18.8165 23.2765
P 2.35662 18.8942 26.6161
P 7.83262 18.9601 28.312
Ca 0.0546503 17.2728 26.264
Ca 4.70449 0.00877175 29.136
Ca 4.5954 17.2369 29.0882
Ca 28.2523 13.7432 26.2122
Ca 8.28182 15.663 29.7097
Ca 7.06014 15.5476 23.7131
Ca 3.54731 15.5336 25.8289
Ca 5.72768 19.03 25.8967
Ca 7.16383 18.9837 32.0317
Ca 1.34444 18.9262 30.0673
O 4.79385 15.5019 24.2416
O 4.78539 19.2307 22.904
O 4.88312 18.5343 24.1717
O 4.93577 15.0972 22.7448
H 4.84136 16.5638 24.0561
H 3.92037 19.1599 24.4772
H 4.82442 16.7127 23.1894
H 4.93269 14.0452 22.7229
O 5.59772 15.3492 33.2323
O 5.54976 15.2769 36.3171
O 3.28371 15.3889 34.8338
O 8.75607 18.9535 39.5827
O 8.69179 18.9567 36.0952
O 1.5561 18.7106 37.8162
O 9.06031 15.5033 39.6749
O 7.92766 15.4644 36.8193
O 1.61628 15.4452 36.787
O 4.84418 19.217 33.5206
O 6.0707 19.0262 35.9455
O 3.13201 18.7584 35.8412
O 1.99955 16.7674 39.8346
O 6.54367 16.3133 38.7667
O 0.807599 16.8124 35.1315
O 2.84458 20.1124 32.8165
O 7.53399 20.0761 34.3497
O 3.74351 20.2878 37.9462
O 2.70257 17.531 32.9587
O 7.18629 17.7739 34.0705
O 3.70545 17.6877 37.9947
O 1.79998 14.2904 39.6436
O 6.41067 14.4928 38.6338
O 0.786684 14.4125 34.007
P 1.10781 15.6764 40.1905
P 6.57242 15.5009 37.474
P 1.56692 15.2948 35.2151
P 3.75636 18.9614 32.4925
P 7.35627 18.7774 35.1779
P 3.14356 18.9442 37.4187
Ca 4.90415 16.9502 35.0799
Ca 0.0479119 20.5723 37.7299
Ca 28.2042 17.1646 37.5747
Ca 4.81259 13.9091 34.6424
Ca 3.60825 15.3414 38.2845
Ca 2.45972 15.5804 31.7882
Ca 8.16621 15.4549 34.6086
Ca 1.02672 18.8343 34.7731
Ca 2.26945 18.8327 40.397
Ca 6.05247 18.793 38.3893
O 28.1625 16.0137 31.666
O 0.0242648 19.462 32.9151
O 28.2322 18.5092 31.7599
O 0.241509 15.1032 32.6562
H 0.255899 17.2106 33.3211
H 0.18434 20.6019 32.4099
H 1.05981 17.5451 32.3941
H 27.8994 13.7844 32.2667
O 0.928423 15.3247 41.7112
O 0.541823 15.2926 45.198
O 7.38578 15.6114 42.9864
O 3.7682 19.0688 48.1735
O 3.86713 18.8513 44.4525
O 6.1089 19.0307 46.454
O 4.28857 15.4534 48.5007
O 3.27963 15.3682 45.1654
O 6.45084 15.4086 45.7195
O 28.2114 18.861 41.5966
O 1.3368 18.769 44.2777
O 8.05327 18.9909 44.4782
O 6.7681 16.7116 48.6333
O 2.162 16.3778 47.1416
O 5.34399 16.7528 44.0327
O 7.1811 20.3436 41.4472
O 2.9474 20.2902 42.6453
O 8.6484 20.2698 46.6238
O 7.43543 17.5553 41.2578
O 2.65196 18.0413 42.3221
O 8.60004 17.6284 46.4801
O 6.45471 14.4087 48.07
O 1.91735 14.4083 47.1757
O 5.4711 14.4587 43.9734
P 5.78006 15.3455 49.1431
P 1.8893 15.4074 45.9824
P 6.50183 15.5563 44.2142
P 8.31171 18.8024 41.0339
P 2.76155 18.9289 43.4879
P 7.94435 18.9013 45.9981
Ca 28.2139 17.197 43.2543
Ca 4.56804 0.0381071 47.2592
Ca 4.81744 17.2661 47.1482
Ca 0.0204103 13.8313 43.3753
Ca 8.21854 15.4948 47.4997
Ca 7.25611 15.5492 40.4893
Ca 3.49324 15.4854 42.9525
Ca 5.84358 18.9424 43.2821
Ca 7.12325 18.937 48.6941
Ca 1.33731 19.0637 46.9186
O 4.8369 16.0754 41.1869
O 4.71368 19.2452 40.1722
O 4.77711 18.3257 41.1238
O 4.96488 15.1466 40.2101
H 5.44564 16.9311 39.3299
H 5.47674 19.9857 40.3342
H 4.41418 17.4453 41.2971
H 3.37916 14.1147 40.5112
O 15.0325 1.71778 13.9645
O 14.9147 1.97944 19.101
O 12.576 1.78721 17.444
O 17.8153 4.89778 22.0297
O 18.0121 5.21903 19.2065
O 11.0639 5.18001 20.377
O 18.5138 1.70003 22.221
O 17.6722 1.81692 19.3812
O 11.2451 1.79182 19.8991
O 14.4458 5.13258 13.9854
O 15.4605 5.11842 18.9452
O 12.6663 5.0943 18.1788
O 11.2951 2.87362 22.2732
O 15.9772 2.77401 21.1022
O 10.3275 2.74522 17.7944
O 12.2839 6.4327 13.921
O 16.848 6.27651 17.1642
O 13.4478 6.23276 20.7055
O 12.2666 3.93023 13.8814
O 16.7413 4.01227 13.7961
O 13.2902 3.82616 20.0887
O 11.0346 0.393153 22.5036
O 16.1217 0.628491 21.2702
O 10.4723 0.526258 18.0182
P 10.5045 1.80042 22.8962
P 16.1995 1.59724 20.0804
P 10.9984 1.84703 18.3535
P 13.0417 5.14832 13.8448
P 16.5907 5.17492 18.058
P 12.6543 5.23788 19.797
Ca 14.2824 3.43345 17.7059
Ca 9.33186 6.95127 20.7142
Ca 9.42601 3.34153 20.6202
Ca 14.0864 20.5612 17.6888
Ca 13.1312 1.76514 20.6136
Ca 11.8374 1.80356 14.1356
Ca 17.5376 1.52425 17.0036
Ca 10.5735 5.04512 17.2981
Ca 11.7194 5.09042 23.4392
Ca 15.3999 5.05559 21.0809
O 9.36373 2.03021 13.9663
O 9.36016 5.54671 13.9635
O 9.4212 4.86165 13.9679
O 9.4495 1.3796 13.9606
H 9.42309 3.01799 13.8538
H 9.42282 6.46208 13.8527
H 9.42317 3.85833 13.8519
H 9.42237 0.418183 13.8519
O 10.2331 1.81053 24.4646
O 9.94537 1.84119 28.0122
O 17.3142 1.60417 26.3463
O 12.7628 5.3233 30.5358
O 13.2876 5.06922 27.361
O 15.7715 5.26331 29.2499
O 13.7837 1.55062 31.0746
O 12.6536 1.63266 27.8577
O 15.3684 1.90898 28.0575
O 9.42977 5.0546 24.6897
O 10.7381 5.0642 27.1664
O 17.4318 5.22623 27.0344
O 15.8484 2.85831 30.8504
O 11.5669 3.02518 29.3694
O 14.8191 2.68292 25.7138
O 16.8964 6.50808 23.855
O 12.1065 6.53008 25.486
O 18.0828 6.60252 29.2347
O 16.965 3.9325 24.3048
O 12.2917 3.61203 25.67
O 17.8899 3.87804 29.0108
O 15.7031 0.532242 30.8474
O 11.6114 0.78875 29.8322
O 14.8843 0.406545 26.1861
P 15.2536 1.65818 31.6714
P 11.5305 1.76317 28.6554
P 15.685 1.75663 26.5167
P 17.5412 5.13576 23.5105
P 12.0421 5.31091 26.4203
P 17.1031 5.17411 28.5374
Ca 9.44464 3.42724 25.9611
Ca 14.1198 6.66711 29.2925
Ca 14.249 3.47191 29.0646
Ca 9.33798 20.6352 26.2389
Ca 17.857 1.60302 29.2102
Ca 16.5126 1.70064 23.3551
Ca 12.9496 1.62997 25.787
Ca 15.3334 5.12585 26.013
Ca 16.4689 5.17284 31.6798
Ca 10.6613 5.11599 29.5408
O 14.0297 1.77947 23.401
O 14.3667 5.28908 23.0299
O 13.7887 5.00819 24.1618
O 13.8883 1.21799 22.2315
H 14.4701 1.64687 24.2604
H 13.5691 6.36237 24.1172
H 13.9708 4.50921 22.7
H 14.5431 20.4684 22.4879
O 15.2218 2.18712 33.1113
O 14.9267 1.99593 36.7586
O 12.1634 1.78873 34.7105
O 18.1405 5.31272 39.3218
O 18.2912 5.28456 35.9015
O 11.2537 5.34646 38.0249
O 18.6339 1.80506 39.703
O 17.5291 1.88291 36.7715
O 11.038 1.88563 37.2529
O 14.3092 5.13558 32.7697
O 15.4155 5.12378 36.2368
O 12.3954 5.14949 35.8767
O 11.4128 2.97162 39.9541
O 16.3004 2.9837 38.5134
O 10.3925 2.84889 34.8667
O 12.47 6.31599 32.8537
O 16.7376 6.3779 34.0031
O 13.355 6.3553 38.3572
O 12.138 3.9018 32.3831
O 16.7177 3.70709 34.5346
O 13.5249 3.88026 37.7934
O 11.3252 0.448659 39.8636
O 16.4346 0.299664 38.0625
O 10.0614 0.559959 35.3417
P 10.4759 1.75111 40.3813
P 16.2036 1.8514 37.4761
P 11.1297 1.62953 35.6444
P 12.9588 5.1374 32.0225
P 16.6273 5.34479 35.2303
P 12.6479 5.49156 37.3529
Ca 14.2378 3.39995 35.2539
Ca 9.41756 6.82941 37.958
Ca 9.49167 3.48076 38.054
Ca 14.222 0.110573 34.7338
Ca 12.9338 1.85566 38.3757
Ca 11.6501 1.63565 31.7782
Ca 17.6786 1.5644 34.2803
Ca 10.5458 5.05593 34.7546
Ca 11.7724 5.1667 40.3766
Ca 15.4537 5.33019 38.5179
O 9.39555 1.97039 31.2734
O 9.61807 5.31116 32.8414
O 9.46801 4.86185 31.3231
O 9.45743 1.56018 32.6785
H 9.66102 3.82119 32.1081
H 9.48494 5.65047 31.9834
H 8.99323 4.40781 32.1219
H 9.33244 0.653477 32.6386
O 10.3623 1.57875 41.8982
O 10.1427 1.78937 45.254
O 17.1375 1.86258 43.6069
O 13.4052 5.12948 48
O 13.3099 5.17949 44.4045
O 15.9362 5.2333 46.3304
O 13.905 1.9496 48.242
O 12.9279 2.14764 45.3067
O 15.439 1.8338 44.8463
O 9.70911 4.96881 41.5641
O 10.9324 5.2817 44.4132
O 17.4211 5.10038 44.1068
O 15.988 2.81495 49.8774
O 11.4386 2.78683 47.3172
O 14.8385 3.04009 42.1721
O 16.9995 6.36216 41.3072
O 12.0241 6.56724 42.5839
O 18.057 6.39278 46.2073
O 16.9979 3.91295 41.4945
O 12.0453 4.13142 42.378
O 17.848 3.64482 46.1134
O 15.8868 0.770447 48.1787
O 11.4013 0.373025 46.7041
O 15.0184 0.572537 43.8933
P 15.0073 1.66071 49.3346
P 11.5623 1.81868 46.1731
P 15.8386 1.75737 43.41
P 17.7619 5.07529 40.8528
P 12.1512 5.21803 43.5188
P 17.2013 5.2438 45.6009
Ca 9.44924 3.33479 43.2545
Ca 14.2012 6.94904 46.9626
Ca 14.1316 3.51476 46.8216
Ca 9.46827 0.179721 43.5144
Ca 17.756 1.69 47.0022
Ca 16.4115 1.62451 40.37
Ca 12.8277 1.6718 42.9301
Ca 15.4492 5.13675 43.0445
Ca 16.4687 5.34148 48.5871
Ca 10.6016 5.24021 46.783
O 14.1948 2.25639 41.4039
O 14.0381 5.42737 41.3275
O 14.0686 4.77646 40.1338
O 14.2684 1.39456 40.1487
H 14.5572 2.16807 43.0798
H 13.1589 5.8609 41.9281
H 15.3504 4.31206 40.6546
H 13.7829 0.966395 40.6296
O 15.0039 8.58283 13.9657
O 14.8253 8.74838 19.0772
O 12.5068 8.44528 17.6441
O 18.0593 12.0953 21.9163
O 17.5989 12.2862 15.8951
O 11.2584 11.9736 20.4922
O 18.532 8.6226 22.8336
O 17.5306 8.67722 19.2539
O 10.7202 8.67823 19.8551
O 14.3658 12.0342 13.9868
O 15.5707 12.3191 17.6171
O 12.7155 12.0816 18.067
O 11.5576 9.66978 22.8282
O 16.0626 9.84845 21.0957
O 10.1301 9.57127 17.8148
O 12.2526 13.2383 13.8973
O 16.8052 13.5903 17.2795
O 13.1806 13.2464 20.1669
O 12.2365 10.8107 13.9317
O 16.7834 10.8005 13.8761
O 13.4752 10.5416 20.0471
O 11.3628 7.68236 22.6824
O 16.2108 7.19916 20.6405
O 10.2334 7.17074 17.6293
P 10.5183 8.58704 23.4413
P 16.186 8.63894 20.0728
P 10.8226 8.54863 18.2775
P 12.9865 11.9796 13.8396
P 16.9278 11.9322 14.7219
P 12.5541 11.8515 19.7337
Ca 14.2704 10.3129 17.6134
Ca 9.38569 13.904 20.6185
Ca 9.42556 10.2812 20.8691
Ca 14.2787 6.90342 17.6111
Ca 13.0482 8.74062 21.0537
Ca 11.8421 8.6133 14.1351
Ca 17.7045 8.49527 14.1285
Ca 10.5964 12.0701 17.0745
Ca 11.7462 12.0126 23.0732
Ca 15.4797 12.0742 21.3321
O 9.3845 8.89148 13.9645
O 9.45321 12.421 13.9653
O 9.43094 11.7369 13.9682
O 9.45106 8.21526 13.9657
H 9.42224 9.89982 13.853
H 9.42345 13.3389 13.8535
H 9.42452 10.737 13.8535
H 9.42259 7.29789 13.8516
O 10.7173 8.7073 24.9455
O 10.3734 9.00227 27.8765
O 16.9285 8.46181 25.8914
O 13.3887 11.9643 30.6654
O 13.1747 12.2249 27.4738
O 15.8502 12.0069 28.976
O 13.7579 8.52532 30.7074
O 12.665 8.61735 28.0789
O 15.8648 8.55445 28.1791
O 9.61831 12.101 24.6618
O 11.0536 12.2415 27.1024
O 17.5005 11.9441 26.6688
O 15.9231 9.78266 30.7147
O 11.3548 10.1533 29.7206
O 14.9962 9.79634 26.045
O 16.8279 13.1762 23.9302
O 12.1661 13.1887 25.2444
O 17.9902 13.381 28.6472
O 16.7878 10.8973 23.6124
O 12.1463 10.6454 25.408
O 18.1006 10.9586 28.7439
O 16.1083 7.47411 30.8013
O 11.33 7.24618 29.7046
O 14.8844 7.03381 26.7708
P 15.3476 8.59099 31.3895
P 11.4299 8.57044 28.9305
P 15.5879 8.57573 26.704
P 17.5935 12.1328 23.4196
P 12.2486 11.8526 26.2798
P 17.103 12.1918 28.1518
Ca 9.53459 10.224 26.0732
Ca 14.1521 13.7206 29.1192
Ca 14.2555 10.2488 29.1421
Ca 9.36597 6.92342 26.3014
Ca 17.6983 8.7122 29.082
Ca 16.4881 8.60865 23.2618
Ca 13.0217 8.64044 25.8645
Ca 15.3498 12.0714 25.3765
Ca 16.5772 12.0567 31.9381
Ca 10.7475 12.0557 29.3431
O 14.1214 8.89802 24.1245
O 14.2117 12.6509 23.5629
O 14.2423 11.4345 23.3318
O 14.0628 8.11123 23.0161
H 13.9052 9.73107 23.9911
H 13.8776 12.9788 24.5704
H 13.7733 10.7458 24.1644
H 14.5314 7.15837 24.002
O 14.8866 8.46156 32.8536
O 15.3412 8.46376 35.7867
O 12.4852 8.69806 34.7198
O 18.1597 11.9936 39.2192
O 18.0684 12.1656 35.9883
O 11.1366 11.9192 37.6615
O 18.8216 8.59041 39.0602
O 17.2758 8.57984 35.9896
O 11.2896 8.66908 36.9678
O 14.5235 11.9809 32.7184
O 15.6316 12.0161 35.6422
O 12.5836 11.8277 35.5298
O 11.5838 9.94481 39.9034
O 16.0591 9.80825 37.9192
O 10.2057 9.66364 34.7059
O 12.0856 13.4429 32.4187
O 17.0518 13.1369 33.7702
O 13.3381 13.3935 37.2288
O 11.9689 10.9211 32.5594
O 16.8092 10.7495 34.0333
O 13.3459 10.7473 37.8897
O 11.253 7.35758 39.7329
O 16.0586 7.2211 37.8092
O 10.4772 7.39611 34.8372
P 10.5223 8.69097 40.2469
P 16.2057 8.57958 37.0325
P 10.9972 8.59455 35.272
P 13.0359 12.0237 32.188
P 17.0162 12.051 34.8957
P 12.594 12.0578 37.0671
Ca 14.367 10.3247 34.7204
Ca 9.21888 13.6917 37.8215
Ca 9.40102 10.0255 37.643
Ca 14.0926 6.89101 34.2015
Ca 13.0704 8.60874 38.058
Ca 11.786 8.84832 31.6431
Ca 17.6364 8.60377 33.9091
Ca 10.4109 12.0783 34.9305
Ca 11.9114 12.053 40.6877
Ca 15.2102 12.1346 37.8288
O 9.39036 8.98634 31.4226
O 9.35468 12.3797 33.1299
O 9.19554 11.7597 31.9639
O 9.2995 8.26619 32.7248
H 9.37944 9.64402 33.0805
H 9.65708 13.1075 32.2128
H 10.4434 10.9684 32.3659
H 9.25778 7.03204 32.0828
O 10.3979 8.31452 41.7465
O 10.0846 8.66648 45.574
O 17.2844 8.52551 43.6749
O 13.4239 11.9468 48.2816
O 13.4615 11.8642 44.5971
O 16.1375 11.947 46.8461
O 13.5897 8.78534 48.957
O 12.978 8.56004 45.5276
O 15.786 8.62366 45.6103
O 9.71563 11.967 41.5435
O 10.5156 11.9125 44.2178
O 16.8738 12.1017 44.4307
O 15.7958 9.81262 48.441
O 11.422 10.1309 46.9188
O 14.7786 9.98857 43.4948
O 17.4016 13.2354 41.626
O 12.3255 13.3897 42.7602
O 17.9988 13.4394 46.2942
O 17.0785 10.8275 41.1284
O 12.1188 10.692 42.7018
O 18.1257 10.75 46.2346
O 16.1042 7.20634 48.7956
O 11.7844 7.45122 47.3758
O 14.8803 7.5109 43.3017
P 15.1653 8.67279 49.3959
P 11.5311 8.42503 46.2226
P 15.7288 8.55759 44.0347
P 17.7298 12.1483 40.7105
P 12.1431 12.1283 43.6078
P 17.4161 12.101 45.8576
Ca 9.56352 10.0983 43.1599
Ca 14.0946 13.8146 47.2397
Ca 14.1263 10.5024 46.9357
Ca 9.32173 6.65732 43.0156
Ca 17.8594 8.41284 47.1567
Ca 16.4928 8.57552 40.8774
Ca 12.8027 8.64307 43.061
Ca 15.2303 12.1461 43.1277
Ca 16.3549 11.9621 48.9416
Ca 10.553 12.1217 46.98
O 14.5248 8.7908 39.6437
O 14.1569 12.7348 40.0139
O 14.059 11.8471 41.1582
O 14.0115 8.32183 40.8584
H 14.1152 10.5938 39.8703
H 13.0911 13.9031 41.5303
H 14.1984 11.0815 40.3556
H 12.6906 7.88185 40.5934
O 14.9986 15.4915 13.9844
O 15.049 15.3463 19.0866
O 12.3683 15.4704 17.9131
O 17.8584 19.1405 21.8845
O 18.3101 19.1862 19.0698
O 10.9879 18.7855 19.9891
O 18.758 15.61 22.5008
O 17.8725 15.3728 19.598
O 10.9247 15.4835 20.132
O 14.3921 18.927 13.9873
O 15.3206 19.0102 18.6389
O 12.6853 18.6856 18.0971
O 11.1835 16.5152 22.6232
O 16.0753 16.3083 21.3543
O 10.1068 16.4513 17.7701
O 12.2803 20.1454 13.8958
O 17.093 20.1627 17.2177
O 13.4307 20.2919 19.9622
O 12.2531 17.6572 13.8777
O 16.9918 17.6179 17.3309
O 13.3609 17.7021 20.1473
O 11.2388 14.2351 23.0484
O 16.2241 14.6751 21.4953
O 10.3343 14.4607 17.9551
P 10.3153 15.4884 23.2595
P 16.1681 15.1776 20.0621
P 11.0637 15.3632 18.5851
P 13.0296 18.9063 13.8577
P 16.7977 18.8949 18.0696
P 12.4422 18.9565 19.6967
Ca 14.1645 17.219 17.5981
Ca 9.45206 20.613 20.3114
Ca 9.48488 17.2388 20.7123
Ca 14.1344 13.6136 17.7674
Ca 13.1846 15.5796 21.1071
Ca 11.8586 15.529 14.1352
Ca 17.4924 15.4229 13.7921
Ca 10.5721 18.9145 17.0468
Ca 11.7073 18.854 23.234
Ca 15.405 18.9359 21.0491
O 9.4247 15.8455 13.968
O 9.39703 19.3402 13.9674
O 9.38501 18.5271 13.9656
O 9.47521 15.1657 13.9673
H 9.42462 16.7769 13.8528
H 9.42287 20.2184 13.853
H 9.42317 17.6168 13.8525
H 9.42221 14.1766 13.8528
O 10.1567 15.5408 24.8037
O 10.5523 15.6406 27.5828
O 16.8702 15.2265 25.6446
O 13.5197 18.8058 30.8581
O 13.2297 19.1948 27.2929
O 15.9356 19.0418 29.6489
O 13.6516 15.5048 30.8981
O 12.8792 15.5126 28.3766
O 15.3895 15.5134 28.093
O 9.45422 18.8844 24.2552
O 10.6644 18.8643 27.131
O 17.1852 18.9567 27.2021
O 15.8834 16.3903 30.5555
O 11.4401 16.8804 30.0067
O 15.1746 16.5175 25.7603
O 17.1562 20.3434 24.0985
O 12.2072 20.2573 25.4131
O 17.939 20.0539 28.1709
O 16.815 17.7556 23.8159
O 12.0199 17.6908 25.3967
O 17.9559 17.6279 29.5091
O 16.0175 14.2736 31.1779
O 11.3258 14.2767 29.9038
O 15.1725 14.4156 25.7656
P 15.1829 15.5112 31.4536
P 11.3874 15.3202 28.8841
P 15.9481 15.4915 26.643
P 17.8726 18.8735 23.407
P 11.9549 18.878 26.313
P 17.1918 18.8792 28.9422
Ca 9.62927 17.3436 25.9652
Ca 14.014 0.112425 29.3274
Ca 14.0973 17.3749 29.3682
Ca 9.56383 13.8238 26.5569
Ca 17.4656 15.6858 29.0928
Ca 16.5818 15.4492 23.441
Ca 12.9209 15.5863 25.9991
Ca 15.3451 18.7664 25.853
Ca 16.5966 18.8787 32.0691
Ca 10.741 18.7587 29.5332
O 14.0953 15.9465 23.7783
O 14.2636 19.3477 22.8628
O 14.1395 18.7165 23.9508
O 14.0518 14.906 22.8609
H 14.3259 16.1887 24.924
H 14.9104 0.819262 22.3225
H 15.1949 17.7663 23.6262
H 14.1881 14.5508 24.3179
O 14.8117 15.4711 32.9776
O 15.1009 15.4816 36.2137
O 12.2319 15.4307 34.6216
O 17.7365 18.9074 39.1498
O 17.9667 18.9865 36.1429
O 11.3305 18.9198 37.7196
O 18.5884 15.5144 39.8849
O 17.2677 15.3276 36.269
O 11.391 15.5416 37.1345
O 14.2427 19.0369 33.2667
O 15.399 19.0738 35.7847
O 12.6149 18.854 35.5464
O 11.0617 16.5516 39.3894
O 16.0341 16.5263 38.4791
O 10.1986 16.7713 35.4015
O 12.2896 20.1815 32.8599
O 17.0626 20.372 34.1471
O 13.1687 19.9708 37.9532
O 12.0936 17.5286 32.5606
O 16.844 17.7278 34.3065
O 13.1849 17.7008 37.664
O 11.1666 14.2271 40.1542
O 16.4079 14.1679 38.1828
O 10.1575 14.2422 35.5152
P 10.6208 15.6819 40.4619
P 16.1469 15.4861 37.3256
P 11.1441 15.5651 35.6627
P 13.0122 19.0291 32.3038
P 16.8208 18.9703 35.1949
P 12.6098 18.9258 37.1155
Ca 14.3202 17.1164 34.773
Ca 9.33327 20.6257 37.8795
Ca 9.55753 17.4843 37.6418
Ca 14.1336 13.9142 34.4919
Ca 12.9559 15.266 38.6227
Ca 11.9065 15.6422 32.1252
Ca 17.6962 15.4692 33.7992
Ca 10.6495 18.8818 34.747
Ca 11.9423 19.0413 40.4508
Ca 15.2466 18.8086 38.458
O 9.49761 15.6034 31.4982
O 9.3899 19.4076 33.0119
O 9.44961 18.4869 31.8845
O 9.26935 15.1934 32.8178
H 9.42808 16.7555 32.1185
H 9.59718 20.0631 32.2951
H 9.89406 18.159 32.6878
H 9.3816 13.9051 32.2757
O 10.3587 15.5343 42.0026
O 10.2122 15.5147 45.2848
O 17.0824 15.598 43.7271
O 13.216 18.9061 47.7639
O 13.472 18.9408 44.8097
O 15.6758 19.0009 46.1743
O 13.9393 15.4056 48.7349
O 12.7504 15.2629 45.6051
O 15.7616 15.6257 45.6978
O 9.64491 19.0604 41.7718
O 10.7993 18.9615 45.1766
O 17.2645 18.8439 44.3164
O 15.8876 16.6784 48.1998
O 11.5058 16.8084 47.2865
O 14.8171 16.8432 43.4054
O 16.8689 20.0712 41.2568
O 12.0425 20.045 42.8987
O 18.0448 20.4155 46.2331
O 16.7445 17.6661 41.1851
O 12.1871 17.9944 42.8802
O 18.1878 17.6626 46.2917
O 16.0953 14.2594 48.6415
O 11.0715 14.001 47.25
O 15.0216 14.227 42.5484
P 15.367 15.5522 49.2803
P 11.4462 15.569 46.4432
P 15.5265 15.6071 44.1321
P 17.7744 18.8774 40.7663
P 11.9519 19.0421 44.103
P 17.3166 18.9577 45.8654
Ca 9.40939 17.1376 43.8245
Ca 14.2515 20.6341 46.9886
Ca 14.0777 17.2225 47.071
Ca 9.47252 13.789 43.1707
Ca 17.6295 15.4769 46.8702
Ca 16.5311 15.5976 40.5757
Ca 12.8755 15.375 43.24
Ca 15.2517 18.8851 43.0837
Ca 16.529 18.7315 48.1804
Ca 10.7071 18.8899 47.5998
O 14.0189 15.8909 40.4057
O 14.0918 19.2119 40.1984
O 13.788 18.5985 41.3811
O 14.6566 15.284 41.664
H 14.0438 16.7063 41.3061
H 14.0343 20.2745 39.9931
H 13.6734 17.1753 41.683
H 14.1172 13.6281 41.0472
O 24.4726 1.67708 13.9447