1731
 Atoms. Timestep: 93841
O 2.68245 7.26467 13.8547
O 20.6211 8.94464 13.8623
O 4.3488 4.83388 13.9121
O 10.3989 2.48447 13.9068
O 20.3628 1.37057 13.8821
O 8.93632 4.99604 13.9009
O 24.4567 3.51358 13.8926
O 6.81124 0.858498 13.9073
O 22.5598 5.02321 13.8654
O 16.7114 6.69304 13.8718
O 7.21242 8.17806 13.8931
O 18.2328 4.88268 15.338
O 11.7533 5.72376 14.3697
O 23.8196 0.557674 13.9119
O 4.23762 2.37753 13.8451
O 27.8205 2.52686 13.8862
O 4.14802 9.75042 13.9082
O 23.7702 8.04602 13.8769
O 1.51594 3.75845 13.8188
O 16.8077 10.2575 13.9456
O 9.04036 7.59348 13.8988
O 13.4777 7.24176 13.88
O 9.14001 0.0607111 13.8897
O 16.8143 1.76594 13.9234
P 13.138 5.8945 13.8039
P 9.77206 11.0748 13.8303
P 5.15628 3.54013 13.8207
P 28.2008 3.96688 13.9116
P 5.54108 10.2437 13.8997
P 8.04663 6.40102 13.8046
Ca 19.0563 7.09204 13.8461
Ca 8.5524 3.16943 13.8356
Ca 22.3187 2.97148 13.8616
Ca 5.10619 7.11691 13.8076
Ca 11.1485 8.18289 13.8927
Ca 14.6203 2.87882 13.8164
Ca 18.8066 11.0837 13.9456
Ca 2.18495 1.84596 13.8689
Ca 27.4033 7.0051 13.8753
Ca 24.3402 10.1941 13.8516
O 28.3439 10.4931 13.8431
O 14.4099 10.4972 13.8614
O 14.8628 10.8511 13.8543
O 28.8783 10.8056 13.8453
H 26.9438 11.7058 13.9331
H 12.9755 10.7624 13.915
H 15.5681 11.3095 13.8704
H 29.5421 11.3151 13.8704
O 13.7853 6.10178 15.6339
O 4.61196 6.76976 17.6152
O 15.2527 3.40728 15.7587
O 22.1452 1.88369 15.9191
O 5.19253 10.8124 26.1288
O 20.7786 4.38943 13.8076
O 7.36897 1.70497 16.9019
O 19.6903 10.7896 15.7151
O 7.05454 3.31622 13.9151
O 28.4248 5.554 13.923
O 18.5762 7.40823 16.5869
O 1.7021 3.13868 17.6554
O 24.14 4.64258 16.7331
O 9.49553 10.3156 28.439
O 15.5327 0.0614347 15.6964
O 11.3863 0.876096 15.374
O 15.4871 7.9489 14.0173
O 7.06102 6.87825 47.031
O 13.4565 1.85193 15.0289
O 27.6873 7.73295 17.2792
O 19.8255 6.7878 16.4255
O 25.0551 4.91451 13.8881
O 22.3488 10.8289 15.4655
O 1.62646 0.848642 16.4677
P 24.2612 4.02964 15.3062
P 21.1651 9.50008 15.19
P 16.2933 1.9252 15.5662
P 11.3192 2.38173 15.1757
P 17.3043 8.98542 14.8368
P 20.2618 4.58682 15.3415
Ca 2.79102 5.15711 15.1213
Ca 19.4349 1.62857 15.7238
Ca 5.50437 1.60518 15.5356
Ca 15.82 5.3172 15.4383
Ca 22.8401 6.70271 14.7944
Ca 25.7455 1.48247 14.9348
Ca 1.77249 8.74565 13.9182
Ca 15.8761 12.1343 16.984
Ca 10.1945 5.28223 15.9996
Ca 8.10612 8.33009 15.8386
O 11.5533 8.97687 21.541
O 25.1675 9.61329 19.1764
O 27.0257 8.43256 13.8946
O 11.3467 8.89323 16.037
H 11.2808 9.66158 15.4674
H 23.0577 11.0357 19.8004
H 25.0556 11.4307 13.8541
H 11.2218 5.99779 38.4603
O 25.3587 3.60252 16.2677
O 15.7933 4.36596 19.2231
O 27.2616 0.822941 14.1178
O 6.58958 10.495 33.697
O 16.5763 10.1104 15.2049
O 3.26911 1.44198 18.9638
O 21.9049 10.5836 20.0814
O 3.49351 8.77227 16.1391
O 16.9489 2.13381 16.848
O 10.9048 2.99455 16.4604
O 0.889087 4.8326 31.4806
O 13.735 1.77635 20.4329
O 6.59254 3.80135 20.3586
O 21.1 8.8974 16.5798
O 29.7208 11.232 14.5798
O 24.6567 10.4844 20.0794
O 26.9683 7.12103 19.7678
O 19.4956 4.9713 21.5834
O 24.4138 1.12704 18.2419
O 12.0425 5.43268 25.3993
O 3.91188 4.14317 17.2118
O 8.27568 4.01719 17.7477
O 5.96995 7.90666 16.1777
O 13.6766 10.1365 48.6597
P 7.99731 2.30622 18.1287
P 4.46764 8.29965 16.9776
P 6.39212 34.3376 17.426
P 22.4424 0.636204 16.7884
P 28.0758 7.05037 18.6127
P 3.07507 3.73723 18.4306
Ca 13.6115 3.97955 19.0409
Ca 5.2991 10.6611 28.8704
Ca 19.1352 10.9492 21.818
Ca 27.1118 4.18394 18.8869
Ca 5.5324 4.63675 18.9123
Ca 11.1034 10.4672 17.5059
Ca 13.8452 7.61116 16.8242
Ca 27.5871 9.86512 18.94
Ca 21.9811 3.59104 18.4556
Ca 19.5325 6.7848 20.6845
O 22.8133 6.92562 35.646
O 9.4852 7.4097 18.16
O 9.73835 7.1508 16.8329
O 23.6388 6.95583 20.4595
H 22.572 4.91904 35.7869
H 8.01863 7.19023 46.9802
H 8.61589 10.1919 16.9765
H 19.7982 8.20623 22.4073
O 9.1614 2.19713 19.1089
O 27.4859 3.14243 20.7527
O 11.9637 11.4996 50.5726
O 19.3264 9.21221 22.7989
O 29.5203 8.4291 19.3931
O 15.1047 0.502951 22.7921
O 5.39924 9.96667 40.2532
O 14.3141 7.60398 19.0363
O 1.57889 0.455939 18.8954
O 23.1179 1.49307 18.2431
O 12.4238 4.7601 32.7516
O 27.8681 10.7699 20.863
O 18.5969 0.348693 20.5049
O 4.6188 7.49854 18.8252
O 12.8071 8.80767 50.5609
O 8.36744 9.48654 43.1232
O 11.3274 5.17618 33.34
O 2.42828 4.02533 19.836
O 9.8867 10.3831 36.1141
O 25.5749 4.31566 20.3323
O 15.6636 2.82407 21.7918
O 19.7607 2.19552 19.2529
O 16.7553 6.90113 20.0513
O 25.251 7.92859 19.7145
P 19.9137 0.345994 19.4488
P 15.7327 6.41204 19.0903
P 13.0133 10.1568 50.1493
P 7.44407 10.3507 42.5244
P 12.4373 5.17543 26.7619
P 14.4466 1.23083 21.7206
Ca 24.6797 2.30595 20.0334
Ca 16.4921 9.94202 38.4253
Ca 2.34461 9.00002 29.7696
Ca 11.3199 1.97681 29.0286
Ca 17.7295 3.14252 20.3337
Ca 22.3593 9.39421 18.4434
Ca 25.4347 6.46502 21.1347
Ca 10.4696 8.0496 44.4355
Ca 4.88501 1.91229 20.2554
Ca 3.32596 5.74201 49.8917
O 6.90954 5.46904 50.5782
O 20.4044 5.24412 50.6157
O 20.8127 6.57233 22.7056
O 7.7563 5.79123 46.7546
H 6.0508 6.88289 50.594
H 21.3153 6.96877 23.4275
H 24.2484 6.98818 35.6336
H 5.37595 6.36019 50.6306
O 4.57779 18.7502 13.8667
O 23.5334 19.4756 13.8795
O 6.25116 16.3017 13.9101
O 12.2361 14.6491 15.4109
O 22.2529 12.8753 13.8809
O 10.875 16.5924 13.8979
O 26.8573 14.4264 15.6901
O 8.72626 12.3686 13.9073
O 24.4929 16.5799 13.852
O 18.533 18.292 13.8745
O 9.56266 20.4631 13.8072
O 20.5904 16.4739 13.8335
O 14.0093 18.3571 14.7954
O 25.7503 12.0526 13.9121
O 6.14774 13.7536 13.8409
O 29.8791 14.2044 14.9653
O 6.06806 21.2388 13.9068
O 25.6983 19.5775 13.8596
O 3.60367 15.2929 13.8187
O 18.9507 20.1706 13.8729
O 10.9584 19.053 13.8803
O 15.384 18.7028 13.8752
O 11.0602 11.637 13.8706
O 19.3344 12.9964 13.984
P 15.1246 17.3624 13.8332
P 11.6491 22.6234 13.8251
P 6.99599 15.0321 13.8308
P 30.1048 15.4615 13.9077
P 7.3497 21.8059 13.9142
P 10.06 17.836 13.8057
Ca 21.01 18.6861 13.8654
Ca 9.22552 13.7433 13.9246
Ca 23.75 13.9616 13.8646
Ca 6.98634 18.6623 13.8385
Ca 13.0981 19.7333 13.9034
Ca 16.2649 14.1244 13.8235
Ca 20.8082 22.5254 13.9459
Ca 4.35008 13.4259 13.8144
Ca 28.8489 18.6914 13.8559
Ca 26.4826 22.1968 13.8536
O 30.2012 22.0286 13.8635
O 16.2324 22.0659 13.8507
O 16.7625 22.37 13.8594
O 30.8126 22.3717 13.8475
H 32.0762 20.1289 13.8617
H 17.205 24.6643 13.8528
H 17.4695 22.8224 13.8704
H 31.4422 22.8223 13.8704
O 15.1667 17.8006 15.813
O 5.68136 18.0608 18.2051
O 17.6562 14.4415 17.1769
O 23.7142 11.0701 20.6645
O 7.82558 22.7938 14.8599
O 22.3343 15.2678 13.937
O 10.0547 12.2393 16.0015
O 21.462 22.525 15.7249
O 8.1647 15.3771 36.6863
O 30.709 16.4768 19.1904
O 19.024 19.1407 16.1714
O 3.93898 15.3226 17.59
O 24.7759 15.9249 28.8779
O 11.268 21.9928 26.0661
O 16.7111 12.5686 14.8958
O 13.3991 12.8411 17.5594
O 17.8422 19.2957 13.8271
O 8.58161 17.3387 27.8711
O 15.1191 13.9491 15.7204
O 29.7944 18.3784 16.5106
O 22.1201 17.5184 18.5652
O 26.8633 16.6875 13.8694
O 24.0895 23.1299 13.9379
O 2.40402 11.7597 15.0777
P 26.9014 15.9683 16.5883
P 23.5143 21.1536 13.8217
P 18.1966 12.029 15.1716
P 13.416 13.6593 16.1552
P 18.9008 20.322 15.4485
P 20.9788 15.4539 14.8037
Ca 4.41151 16.42 15.4238
Ca 21.5388 13.1238 15.7596
Ca 7.6184 13.3711 15.9152
Ca 18.4566 16.8381 15.2256
Ca 24.6419 18.0938 15.1598
Ca 27.8692 13.4585 13.7427
Ca 4.32802 21.3697 13.8325
Ca 17.3081 22.9799 16.3729
Ca 12.2528 16.6481 16.1774
Ca 9.41548 20.1948 16.3205
O 13.0561 20.3184 17.8165
O 27.828 20.4988 15.0998
O 28.106 20.6849 13.8239
O 14.6956 21.3832 19.608
H 12.2366 19.4089 20.479
H 25.9257 15.8303 13.8604
H 30.999 20.5574 13.8375
H 14.889 20.4903 20.1936
O 27.2831 15.1327 17.927
O 17.518 17.2415 19.7244
O 28.8849 11.9365 14.0795
O 9.28645 23.0621 35.7675
O 18.8007 21.6023 15.9761
O 6.00829 12.7663 16.7241
O 23.6496 23.2529 18.9486
O 5.62497 20.0605 20.1344
O 19.3801 14.4201 13.8513
O 13.4783 15.5153 17.5823
O 2.95463 16.9755 30.5118
O 15.9584 13.525 19.5722
O 9.43719 14.5417 45.1788
O 21.9152 20.4362 13.7963
O 31.0318 22.1607 16.7464
O 26.3116 22.4216 20.4371
O 28.9523 18.6146 18.4634
O 20.8197 15.9125 16.2196
O 26.2173 12.3944 18.992
O 14.2204 16.8377 15.4564
O 5.92169 16.0259 18.7925
O 9.40326 15.1984 16.1409
O 6.96568 19.3558 16.3562
O 16.1839 20.7304 42.7798
P 10.2158 14.2607 16.999
P 6.50109 19.4754 18.0505
P 91.2953 12.7128 15.8307
P 24.7173 12.4036 19.8284
P 30.6971 18.1694 17.8302
P 4.80392 14.8043 18.7014
Ca 15.6394 15.2291 17.5709
Ca 7.20499 22.7685 17.9496
Ca 20.8423 22.2342 18.041
Ca 29.8312 14.8886 19.9542
Ca 8.09578 16.4898 18.5196
Ca 13.1479 22.369 17.6973
Ca 15.2563 19.0815 19.0657
Ca 28.7475 21.3527 16.7498
Ca 23.3851 15.6317 18.518
Ca 20.7088 18.6363 19.5993
O 24.8389 18.7954 19.135
O 10.9663 18.9193 20.2906
O 11.8478 19.3875 19.3408
O 26.7263 18.6532 14.1897
H 24.1316 19.3207 18.6476
H 5.78124 20.772 18.5512
H 11.263 21.0331 13.8281
H 29.6795 21.4813 18.9206
O 11.1954 14.454 18.309
O 30.0294 15.3119 43.0838
O 14.4174 22.7429 44.4469
O 20.2003 20.879 19.2356
O 29.8008 18.4209 19.5427
O 16.5732 11.5759 21.3956
O 7.03776 21.7958 50.5341
O 16.647 19.4009 20.7109
O 3.70367 11.9178 22.7402
O 25.5668 12.9718 21.1693
O 13.6663 14.7949 50.5733
O 29.0752 22.8857 19.0704
O 20.0423 12.4077 19.9768
O 6.80669 19.1507 19.9875
O 13.6619 19.7045 50.4096
O 8.89578 21.1282 43.6681
O 11.5976 16.573 35.8159
O 4.45719 13.9655 19.8682
O 12.1585 21.6335 35.6831
O 26.2821 16.0286 50.6509
O 18.1296 14.0147 20.7693
O 21.8112 14.3972 19.6192
O 19.2021 18.8021 21.3059
O 28.2488 20.2842 18.9316
P 21.0893 12.9973 19.1921
P 17.9621 17.4713 21.2161
P 15.6227 21.3343 43.8827
P 10.0821 21.3074 35.7213
P 13.6525 17.1731 36.5055
P 16.9581 12.6079 20.4079
Ca 27.2696 13.8323 20.463
Ca 18.4558 20.5592 20.2261
Ca 3.83904 20.858 32.2682
Ca 13.0997 14.2869 19.3343
Ca 19.3485 14.8983 19.0898
Ca 24.6539 21.0184 19.8877
Ca 27.1863 18.1131 18.8185
Ca 11.9882 19.6876 26.038
Ca 7.14094 13.5004 46.1175
Ca 5.17421 17.3064 20.4063
O 9.04511 17.7384 50.6599
O 22.0925 17.0446 45.6124
O 22.0089 17.7717 44.4533
O 9.27728 18.2612 49.4185
H 11.5068 14.4232 50.6687
H 20.2665 14.067 50.6552
H 21.1495 18.0482 44.9017
H 11.167 18.0742 50.6051
O 6.51759 30.185 13.8679
O 24.4123 31.4337 13.8778
O 8.19271 27.8727 13.912
O 14.6965 26.1052 13.8633
O 24.189 24.3919 13.8966
O 12.7881 28.0682 13.9073
O 28.7352 26.5029 13.8327
O 10.5762 23.8706 13.9106
O 26.4138 28.0495 13.8562
O 20.5025 29.7136 13.8737
O 10.8584 31.5607 13.9534
O 23.0752 27.1816 14.808
O 15.5332 28.9655 14.8688
O 27.6752 23.545 13.9121
O 8.0618 25.3447 13.831
O 31.6105 25.4276 13.8367
O 7.96182 32.7863 13.9074
O 27.5383 31.0627 13.8667
O 5.36218 26.7933 13.8175
O 20.4005 31.9058 13.786
O 12.9047 30.5443 13.8739
O 17.3387 30.2589 13.8735
O 12.9323 23.1452 13.8828
O 21.133 23.6739 16.2675
P 16.8641 29.0398 13.8046
P 13.3624 34.209 13.8284
P 8.99492 26.4869 13.8349
P 31.93 27.0018 13.9077
P 9.40301 33.3463 13.8962
P 12.0959 29.3931 13.8054
Ca 22.8677 30.005 13.8611
Ca 12.5662 25.7064 13.802
Ca 25.6149 25.4629 13.8683
Ca 8.73179 30.1645 13.8114
Ca 14.9777 31.4085 13.8896
Ca 18.346 25.8476 13.8157
Ca 22.4791 34.1143 13.9462
Ca 6.08585 24.5308 13.9616
Ca 30.635 30.1232 15.6569
Ca 28.4266 33.4223 13.8437
O 32.154 33.5168 13.8481
O 18.1499 33.5691 13.8531
O 18.6562 33.8884 13.8426
O 32.6165 33.9018 13.8505
H 26.6183 3.50984 13.8259
H 16.1153 30.9973 14.296
H 19.3704 34.3373 13.8704
H 33.3455 34.3342 13.8704
O 18.0055 29.0628 21.5603
O 8.17913 29.5756 17.1555
O 19.1852 27.0153 16.129
O 25.8587 23.3385 15.4828
O 4.43907 0.84963 13.931
O 24.887 27.696 17.7044
O 13.0686 25.0795 15.6253
O 23.738 33.5734 15.2186
O 10.8015 25.9947 13.8774
O 32.2374 29.0434 13.9353
O 21.5136 30.4629 13.8362
O 6.0666 26.84 16.8473
O 26.9325 27.3562 20.4082
O 13.2381 33.1202 15.0865
O 20.0354 23.9563 15.4627
O 15.31 24.3744 16.384
O 19.3308 31.7572 16.8585
O 12.0731 29.9902 22.7274
O 16.5124 25.1167 14.4202
O 32.8607 29.6321 19.4995
O 24.5532 28.771 15.504
O 29.1279 28.4279 15.1296
O 26.0014 33.0336 15.7852
O 4.39829 23.8423 13.8132
P 28.7057 26.9194 15.3095
P 25.1738 32.6072 14.6478
P 20.0167 25.4252 16.5889
P 15.1962 25.0072 15.0948
P 19.7314 31.5861 15.0965
P 23.4129 27.8709 16.0744
Ca 6.53058 28.7991 15.5075
Ca 23.4766 24.1968 15.7351
Ca 9.12856 24.2303 15.5053
Ca 20.2461 28.4337 15.3302
Ca 26.4339 30.2696 15.6275
Ca 29.6965 24.4903 13.8904
Ca 6.22811 32.6348 15.0918
Ca 13.1573 0.342196 16.5862
Ca 14.4067 28.6106 16.6834
Ca 12.1314 31.7412 15.728
O 15.8753 30.8036 15.8743
O 29.8217 31.7593 14.653
O 30.6749 32.173 13.806
O 16.8745 32.1807 14.6143
H 15.3364 30.7502 14.8675
H 26.2677 27.9633 14.9246
H 31.1768 29.7161 13.839
H 17.5602 32.2671 13.9588
O 29.3536 26.5486 16.6388
O 19.7358 27.5993 20.2863
O 31.8983 24.2943 15.4347
O 12.001 34.0369 36.6919
O 21.2479 32.7576 13.8625
O 7.25725 24.1081 16.5248
O 24.8367 34.5285 18.0518
O 7.01606 32.0568 17.0332
O 21.3071 24.6832 17.0949
O 15.0333 27.4368 13.8393
O 5.21533 29.1494 19.3974
O 17.5461 24.0634 21.4209
O 10.8243 25.9912 18.1083
O 23.8596 30.5055 16.3652
O 32.8168 33.8972 15.1677
O 28.4227 33.7698 16.8684
O 31.2721 29.271 19.7005
O 21.9761 28.2277 16.9287
O 27.8763 23.0685 18.365
O 15.4337 29.3677 18.1543
O 7.16077 27.3404 19.1547
O 11.9894 27.1462 16.0348
O 8.73058 32.194 18.5852
O 18.0581 33.6713 38.4785
P 11.8921 26.3309 17.1434
P 7.83341 30.9404 17.7951
P 3.80483 22.6809 15.0622
P 27.3439 23.8501 20.3023
P 32.1165 29.5643 20.8644
P 6.97461 26.1826 17.8829
Ca 18.4196 26.0972 19.6197
Ca 9.04736 33.8299 19.7093
Ca 22.6261 33.8673 17.3014
Ca 32.0782 27.346 19.3876
Ca 10.0469 27.5712 19.3306
Ca 15.4529 34.4743 15.9013
Ca 17.3552 30.7389 18.1363
Ca 30.3335 32.5946 16.7621
Ca 25.2388 26.4759 19.3638
Ca 23.5529 29.6655 18.1322
O 26.6775 30.8589 50.6174
O 13.1453 30.888 22.4046
O 13.4639 30.4543 18.1866
O 28.3678 30.5648 17.2715
H 27.1892 31.2515 49.9915
H 12.9783 31.092 23.2298
H 17.7931 30.8308 14.7791
H 27.0346 29.7695 50.384
O 12.9806 24.8318 16.9387
O 30.1927 26.0153 20.0296
O 9.56551 0.37029 49.7959
O 22.5242 32.782 19.0747
O 32.3104 30.7736 22.0325
O 18.1659 23.5302 24.2412
O 8.1252 32.7277 21.2504
O 18.6621 30.1031 19.5069
O 5.19798 22.9265 15.7743
O 25.8309 24.6245 20.1863
O 16.5776 26.664 18.6432
O 25.8688 0.172708 13.8567
O 22.4458 24.171 21.4294
O 8.437 29.0827 19.1989
O 15.7225 32.0647 50.7278
O 10.668 32.898 38.6665
O 15.1724 28.3424 20.4789
O 6.09938 26.5324 19.5683
O 13.3328 33.0244 38.9866
O 27.4554 28.6154 20.2774
O 19.1988 25.5087 22.3844
O 23.2349 25.9015 20.1927
O 20.8879 30.2791 21.032
O 29.4017 32.1883 18.7488
P 23.1955 23.6019 20.3305
P 19.3635 28.9959 20.8385
P 17.8778 33.4206 39.862
P 12.2139 33.2003 38.0523
P 15.99 28.4292 19.1664
P 18.7027 24.4048 23.1031
Ca 29.0274 25.2769 18.5093
Ca 19.8481 32.5337 19.2306
Ca 6.68454 32.5668 19.8364
Ca 15.2992 25.453 42.2881
Ca 21.1455 26.4423 21.2677
Ca 27.1664 32.7354 18.3671
Ca 28.9188 29.204 18.8948
Ca 14.166 31.3159 28.9825
Ca 9.19327 25.1847 25.7719
Ca 7.02841 28.9238 20.5683
O 10.9381 29.427 50.6276
O 24.5054 28.5356 49.7196
O 25.2452 28.2121 36.7004
O 11.8913 29.0723 49.9251
H 12.2536 28.6921 49.0321
H 26.3308 27.4202 50.598
H 24.7419 28.865 50.6058
H 7.34769 29.2251 50.6008
O 30.6311 7.21993 13.8703
O 48.7654 9.36951 13.8829
O 32.329 4.84889 13.9113
O 38.1186 1.79002 13.8113
O 48.3102 1.37622 13.891
O 36.9195 5.0437 13.907
O 52.2573 3.11575 13.7601
O 34.8029 0.855486 13.9063
O 50.5688 5.05327 13.851
O 44.7898 6.63076 13.8766
O 34.3271 8.90305 13.9342
O 47.1352 4.62202 13.8463
O 39.6246 5.79098 13.847
O 51.7633 0.521619 13.9119
O 32.2283 2.26021 13.8417
O 56.3082 3.48584 20.8367
O 32.1223 9.7501 13.9058
O 51.7377 8.00057 13.8775
O 29.6147 3.83641 13.8182
O 44.9113 9.78792 13.8425
O 37.0184 7.54793 13.8897
O 41.4265 7.21907 13.8727
O 37.1086 0.131783 13.9048
O 46.2455 1.98455 13.8174
P 41.0752 5.98625 13.8288
P 37.6063 11.0395 13.8105
P 33.1076 3.60943 13.8472
P 56.1003 3.93683 13.9126
P 33.4048 10.2848 13.8999
P 36.1822 6.3892 13.8043
Ca 47.1367 7.13582 13.8617
Ca 35.9076 3.01931 13.8497
Ca 50.1799 2.38921 13.7913
Ca 32.9759 7.0463 13.8236
Ca 39.2943 8.30901 13.8922
Ca 42.5575 3.05432 13.8153
Ca 46.5858 10.836 13.946
Ca 30.1134 1.22841 13.8296
Ca 54.5494 6.7763 15.3253
Ca 52.5245 9.98188 13.932
O 56.2161 10.4841 13.8516
O 42.2388 10.5456 13.865
O 42.8181 10.9088 13.8429
O 56.813 10.8782 13.8607
H 53.8989 4.10704 13.8476
H 39.3771 12.5648 13.8583
H 43.5151 11.3133 13.8704
H 57.4886 11.3126 13.8704
O 41.8109 5.88593 15.5081
O 31.401 7.2769 18.5449
O 44.2604 2.81848 15.8287
O 48.4283 1.56022 17.4699
O 33.5747 10.9426 28.9575
O 48.179 3.74761 15.8513
O 35.6833 0.98628 16.7367
O 47.7216 10.4258 15.6171
O 32.7493 4.02858 38.9352
O 55.2751 4.71325 20.6856
O 45.7273 7.08811 15.2246
O 30.7977 3.42212 14.5895
O 50.5351 4.1046 14.9046
O 37.5987 10.6708 18.9533
O 48.9193 34.3057 14.9441
O 38.9535 1.37876 16.0705
O 43.522 8.58402 15.8303
O 35.3585 7.08071 26.5866
O 41.0046 2.20817 13.8737
O 57.3929 6.64605 20.2674
O 47.9801 5.78231 16.1851
O 51.8792 5.75842 13.9926
O 51.0048 10.985 15.1243
O 34.4454 34.4879 14.9106
P 52.5839 4.08387 14.8499
P 49.3058 9.62013 15.2967
P 44.4051 2.01993 14.2897
P 38.8942 2.23925 14.7784
P 44.7407 9.14018 15.1383
P 47.0511 4.75518 15.2955
Ca 30.5636 5.48656 15.3297
Ca 47.5932 0.444599 15.7039
Ca 34.0324 1.18419 15.7282
Ca 44.1723 5.45336 15.3964
Ca 51.0787 6.24876 16.4717
Ca 53.936 1.1731 13.8893
Ca 30.3018 9.13048 13.922
Ca 43.6081 11.3709 15.7116
Ca 38.1593 5.41282 15.7749
Ca 35.9227 8.54565 17.8363
O 39.3989 7.89794 17.99
O 54.4867 8.12959 13.8307
O 53.1072 9.91597 16.1431
O 39.4621 8.7572 16.9547
H 40.1583 3.8977 15.26
H 51.1555 8.11377 14.576
H 54.4049 11.8294 14.944
H 42.3214 7.73791 13.8939
O 54.1601 5.49446 21.3685
O 43.7258 6.1524 32.9666
O 54.2453 1.79248 15.8887
O 36.0156 11.401 30.9505
O 45.9727 10.0183 16.1594
O 32.3065 2.38656 35.2924
O 49.4762 11.7028 18.9037
O 31.7476 9.61686 19.1382
O 45.4449 2.31563 24.7558
O 39.3143 3.34501 15.6051
O 29.0989 5.64917 18.6331
O 41.1606 1.53278 40.3235
O 34.9342 2.84318 18.9059
O 49.1044 8.89789 16.5654
O 57.4937 10.1951 17.4376
O 53.2334 10.6198 27.205
O 54.6894 6.44541 20.5389
O 46.7409 4.62807 16.9631
O 52.0593 0.470931 17.0445
O 39.934 5.32433 17.4696
O 32.6128 4.15386 16.5006
O 36.4693 3.84645 16.6053
O 34.8582 7.73314 19.272
O 41.7103 10.3359 38.7189
P 35.8528 2.75513 17.6569
P 32.6632 8.27584 19.1599
P 34.114 34.4988 16.3335
P 50.757 0.608859 17.7726
P 55.7564 7.61631 19.8626
P 31.3853 4.1683 17.5719
Ca 42.2663 3.76059 22.1743
Ca 33.0131 10.8566 42.6511
Ca 47.2192 11.0892 18.4451
Ca 56.1753 4.189 22.6165
Ca 33.8668 5.44771 19.2811
Ca 38.8262 10.8341 16.2804
Ca 41.7926 7.27804 17.9888
Ca 54.793 9.50409 16.9911
Ca 49.6452 3.75672 17.097
Ca 47.623 7.61759 17.5782
O 51.0909 6.89297 49.1374
O 37.8517 6.56674 17.5013
O 37.8862 7.79666 17.6661
O 51.8256 8.25205 17.5864
H 51.2721 9.44615 40.8634
H 36.7159 4.12577 18.7366
H 37.0133 9.85854 20.2461
H 52.1085 8.81829 18.2602
O 37.1585 1.84851 18.3597
O 54.9225 3.8341 49.3025
O 40.4989 11.9123 48.6681
O 47.3732 9.15977 19.1617
O 56.5178 8.03533 21.2677
O 43.644 0.376872 18.6424
O 32.9065 10.5445 50.1995
O 43.5485 8.85575 37.5435
O 27.9033 0.508591 17.8564
O 51.1187 1.15821 19.2786
O 41.2899 4.53516 50.5786
O 55.5335 11.2463 15.2883
O 45.9167 0.689712 50.653
O 32.0953 6.61161 20.4914
O 40.1009 9.19108 44.8881
O 36.1166 9.13659 38.6055
O 38.1703 5.43521 25.9087
O 30.1939 3.11611 17.9055
O 37.9356 10.3835 20.1216
O 51.4994 5.0906 18.3128
O 42.7626 1.74012 42.3747
O 47.407 3.27388 31.7579
O 45.2314 6.33974 35.3109
O 53.9545 8.74162 18.7756
P 46.6908 0.820631 49.6593
P 44.3315 6.53194 34.1771
P 41.735 10.2623 40.1192
P 36.446 10.2794 37.7097
P 40.0217 5.56168 50.571
P 42.2962 1.71385 40.9962
Ca 53.4481 1.90948 18.0323
Ca 44.6847 9.6161 23.3218
Ca 30.467 9.56574 20.991
Ca 39.5234 2.78168 18.0337
Ca 45.6656 3.26454 28.9676
Ca 50.4241 9.16153 19.0091
Ca 52.7683 5.99709 19.7744
Ca 38.9114 8.13533 20.1235
Ca 33.079 2.69843 44.8138
Ca 30.6461 5.68448 19.7861
O 34.865 6.20214 50.6427
O 48.3218 5.31491 39.6764
O 48.9528 5.87872 38.6973
O 35.6386 6.06903 34.4516
H 35.3668 2.34821 50.6436
H 44.721 3.18526 48.352
H 53.8837 7.90639 50.5467
H 34.7302 8.21642 45.3772
O 32.5059 18.7183 13.8707
O 50.3718 20.5174 13.8607
O 34.2177 16.3187 13.9121
O 40.8267 14.3539 13.826
O 50.1301 12.925 13.8902
O 38.8596 16.5384 13.9
O 54.2189 14.7713 13.8678
O 36.6788 12.3637 13.9059
O 52.3698 16.5657 13.8615
O 46.4995 18.1968 13.8761
O 36.5929 21.4774 14.834
O 49.1994 16.4915 13.884
O 42.3935 17.0288 16.8396
O 53.6846 12.0788 13.9117
O 34.0862 13.7596 13.8408
O 57.5149 13.3656 13.8561
O 34.0158 21.3448 13.9085
O 53.5903 19.5364 13.861
O 31.4145 15.3539 13.8177
O 47.1206 20.8153 14.8515
O 38.9583 19.0276 13.8735
O 43.3885 18.8067 13.8655
O 39.0279 11.5824 13.8847
O 47.3578 12.7212 13.9025
P 42.9875 17.4251 13.8068
P 39.5 22.648 13.8364
P 34.9048 15.0156 13.8343
P 57.9208 15.3778 13.9116
P 35.5208 21.7184 13.9047
P 38.0237 17.741 13.8053
Ca 49.0257 18.6477 13.8789
Ca 37.9872 14.7743 13.8632
Ca 52.0801 14.1012 13.8808
Ca 35.0523 18.6503 13.8363
Ca 41.1249 19.9024 13.8892
Ca 44.471 14.4156 13.8131
Ca 48.6898 22.4437 13.9453
Ca 32.091 13.2224 14.1987
Ca 56.5395 18.4306 15.1633
Ca 54.6901 21.9548 13.8406
O 58.1344 21.9815 13.8602
O 44.2149 22.0534 13.8563
O 44.7269 22.4177 13.8433
O 58.7157 22.3584 13.8471
H 54.1773 20.7772 13.9438
H 42.4756 20.0121 16.6743
H 45.4183 22.8245 13.8704
H 59.3905 22.8249 13.8704
O 45.3125 17.4562 22.1472
O 34.7171 19.7205 16.2302
O 44.8875 14.2594 16.2114
O 52.3983 12.2853 13.8133
O 35.1032 23.3682 13.869
O 50.3408 14.8117 15.1804
O 37.4998 12.8141 17.2876
O 49.661 22.2866 15.5405
O 36.2914 14.7685 21.8551
O 57.7997 16.7778 14.8987
O 48.6714 19.5851 16.4691
O 32.9265 14.4012 17.7
O 52.6833 15.766 30.595
O 38.7995 23.0055 20.9902
O 45.7013 12.0571 17.2671
O 40.6287 12.1936 16.5655
O 45.6204 19.3675 16.286
O 36.9541 18.2602 19.4497
O 42.3208 14.0031 13.8531
O 58.8142 18.6677 17.1834
O 50.578 17.96 15.0968
O 55.12 17.4777 13.9427
O 51.9766 21.1036 16.2173
O 30.6424 10.633 15.1896
P 54.7962 15.7732 14.8494
P 50.8752 20.8947 15.2457
P 45.9859 13.3336 16.6273
P 40.9686 14.1407 15.2613
P 47.3247 19.5371 15.8561
P 48.9524 16.7251 15.3144
Ca 32.7625 16.7264 15.5344
Ca 49.6015 12.5326 15.8
Ca 35.9557 12.3582 18.9703
Ca 46.1665 17.1178 17.2264
Ca 52.4563 18.5209 15.3914
Ca 55.7566 12.7805 13.8573
Ca 32.4417 21.0764 14.6609
Ca 45.5639 23.1022 15.7595
Ca 40.4186 16.9403 17.401
Ca 38.1091 20.2578 19.5003
O 41.6037 20.201 17.4846
O 55.8762 21.2364 15.4549
O 56.5077 19.9319 13.8898
O 41.9402 20.3158 15.2251
H 40.1932 19.3914 18.1848
H 54.0767 18.7579 13.8683
H 55.6539 21.2185 13.8347
H 44.1844 20.7295 14.1202
O 54.954 15.0084 16.2096
O 46.9968 16.3054 19.1708
O 57.2101 13.4043 17.7991
O 37.9807 22.2578 21.7783
O 47.1384 21.5366 19.1794
O 33.8214 12.8861 19.4955
O 51.9981 22.9049 21.0951
O 32.8124 20.5268 18.707
O 48.1779 13.5115 16.758
O 41.924 14.7453 16.2732
O 31.7148 17.2046 18.6288
O 43.6841 12.3808 44.0807
O 37.401 14.666 22.6399
O 50.2088 20.2295 16.4828
O 58.7783 21.4944 16.4594
O 53.8652 22.9504 19.6559
O 57.6292 17.5606 19.1534
O 48.5868 16.6657 16.7443
O 53.4025 12.446 21.3963
O 42.1381 17.3758 18.2865
O 33.923 15.6261 20.0742
O 38.1324 15.4569 16.1132
O 35.5176 19.3849 19.1708
O 44.9857 21.7058 26.7248
P 37.9078 14.4678 17.304
P 34.5719 19.2891 17.7149
P 29.8728 11.7599 16.274
P 52.9136 12.1444 27.7292
P 58.9432 18.5568 18.5089
P 33.1089 14.6464 19.1725
Ca 44.595 15.4233 19.0994
Ca 34.2583 22.3128 18.4698
Ca 48.8213 21.4963 20.3909
Ca 57.6495 15.3749 16.5138
Ca 36.2198 16.5432 20.6574
Ca 41.177 23.4482 16.8518
Ca 43.5548 19.3195 16.0029
Ca 56.2489 21.4895 17.1425
Ca 52.006 15.2923 43.9653
Ca 48.7201 18.8828 19.7941
O 52.9754 18.857 50.6939
O 38.8831 18.7046 20.7601
O 38.8876 19.3706 17.6185
O 53.2055 19.192 19.0422
H 52.2435 17.468 50.6248
H 39.1864 17.5473 20.6653
H 43.7066 20.318 14.446
H 53.7635 18.6763 19.7271
O 39.1778 12.8868 15.8067
O 56.632 15.3394 18.8695
O 42.8857 22.7099 28.2367
O 49.3369 20.4674 40.8764
O 58.9204 18.9048 20.1915
O 46.2106 11.3421 35.9073
O 33.7662 21.9132 36.1848
O 45.6159 18.8256 20.0073
O 30.9513 11.7256 17.3846
O 53.0419 13.0635 28.8003
O 41.8146 15.2267 19.3153
O 55.6269 23.1618 19.5279
O 47.1835 12.5934 20.7109
O 33.9422 19.6598 19.0081
O 41.8047 20.9322 26.5306
O 39.3467 20.6292 23.749
O 41.0679 16.7598 22.063
O 31.9032 15.1815 20.1339
O 40.1038 22.0125 21.391
O 53.6441 15.55 41.0614
O 45.5819 13.999 45.505
O 50.0271 13.3214 18.8846
O 48.3988 18.5095 21.7198
O 55.3998 20.4493 18.3722
P 49.1146 12.7719 20.1109
P 46.1303 17.1426 20.8619
P 43.2738 21.5136 27.2021
P 38.2413 22.432 23.3622
P 41.8967 17.1765 20.7795
P 44.9074 13.1533 44.6145
Ca 55.7274 13.0393 19.1291
Ca 46.2339 21.0831 21.2088
Ca 32.3513 21.4361 20.4105
Ca 40.9409 12.9669 18.341
Ca 47.909 14.2601 18.6056
Ca 52.5944 20.911 20.134
Ca 54.5874 17.8135 18.7047
Ca 40.09 20.0774 21.8648
Ca 34.6049 13.3562 21.2262
Ca 32.3872 17.2043 20.9003
O 37.8572 16.5751 50.5509
O 50.616 18.2419 50.6089
O 50.8229 18.0235 49.2222
O 36.6916 17.7401 50.6039
H 35.8078 18.9704 50.5907
H 46.3984 18.5401 14.7433
H 51.9793 19.056 50.6188
H 33.0227 19.8484 50.6234
O 34.4028 30.2577 13.8784
O 53.0126 31.1004 13.9979
O 36.0932 27.8579 13.9097
O 42.0647 26.4147 13.9794
O 52.1678 24.4358 13.8716
O 40.7078 28.0366 13.9085
O 56.8675 26.6411 13.8243
O 38.6426 23.8418 13.9094
O 54.3082 28.0634 13.8386
O 48.4641 29.7413 13.8759
O 37.6681 32.3683 15.1043
O 51.0014 27.0945 13.9344
O 43.0591 28.4295 14.0579
O 55.5893 23.4911 13.9111
O 35.9834 25.2725 13.8426
O 60.0305 25.4999 14.0063
O 35.9724 32.7976 13.9071
O 55.5383 31.0785 13.8696
O 33.3736 26.7578 13.8183
O 49.7224 32.1241 13.9462
O 40.8367 30.5965 13.8738
O 45.2674 30.2576 13.8814
O 40.9324 23.2126 13.868
O 49.5928 25.5907 15.3151
P 44.7229 28.955 13.8109
P 41.391 33.9565 13.8327
P 36.9498 26.4889 13.8281
P 59.8861 26.96 13.9051
P 37.3402 33.2844 13.8737
P 39.858 29.3886 13.8043
Ca 50.8371 30.1823 13.8816
Ca 40.1082 25.7242 13.8444
Ca 54.1778 25.8726 13.8366
Ca 36.8237 30.0016 13.8132
Ca 43.1451 31.3815 13.9001
Ca 46.4085 26.0076 13.8136
Ca 50.2941 34.0042 13.9439
Ca 33.9123 24.6195 13.8681
Ca 58.3128 29.8179 13.8622
Ca 56.345 33.409 13.9121
O 60.0682 33.5529 13.8431
O 46.0717 33.5969 13.846
O 46.5954 33.8651 13.8475
O 60.6348 33.9215 13.8429
H 60.5341 28.591 13.8435
H 43.2999 32.3963 16.0963
H 47.3185 34.337 13.8704
H 61.2918 34.3362 13.8704
O 45.362 28.8175 15.5869
O 37.2099 30.437 18.994
O 46.5967 25.3932 15.992
O 54.7325 23.673 18.5982
O 31.4816 0.645624 13.8221
O 52.5247 26.8383 16.0161
O 39.0502 24.6575 16.7748
O 52.2705 33.8518 13.93
O 36.6226 26.5442 19.8015
O 59.1592 27.9737 14.7067
O 49.2871 30.2502 14.7244
O 33.7864 26.3543 18.5474
O 54.4541 26.3811 15.6458
O 40.9829 34.015 30.1376
O 48.1925 23.0473 15.8427
O 43.6154 24.6575 16.6085
O 47.6579 31.5055 13.873
O 38.6867 29.0907 19.9135
O 44.3126 25.4463 13.8764
O 60.2983 30.7289 13.9734
O 52.0016 28.7786 15.5845
O 56.7214 28.7265 13.9161
O 53.8646 33.1158 16.1967
O 33.4958 23.8058 16.008
P 56.1537 27.4208 14.8526
P 52.6364 31.979 15.141
P 49.0777 24.9666 16.9157
P 43.7925 25.1953 15.2318
P 48.2561 31.5326 15.5587
P 51.1475 27.6035 15.3946
Ca 34.977 29.033 15.4374
Ca 51.0471 24.5393 15.4573
Ca 37.3347 24.6865 15.6947
Ca 48.7219 28.7001 15.9499
Ca 53.5891 30.3449 17.8594
Ca 57.9681 24.165 13.8795
Ca 34.0105 32.8087 13.953
Ca 47.4501 34.0059 16.2837
Ca 42.3844 28.2635 17.0135
Ca 39.9893 31.188 18.1291
O 43.4192 32.2726 23.7231
O 57.9495 32.1459 15.0064
O 58.0698 32.7749 13.8395
O 43.8056 31.549 16.0774
H 43.4851 29.5105 13.7944
H 53.6856 1.01621 20.4539
H 62.2528 33.1975 13.7452
H 44.952 33.9375 13.8768
O 56.6082 26.9513 16.2127
O 48.1048 28.2758 18.3173
O 58.275 24.4322 17.0359
O 38.4842 33.8845 17.4943
O 48.704 32.856 17.1278
O 36.3638 24.7995 20.136
O 47.4242 0.0302841 48.7917
O 34.6874 31.6049 19.9187
O 50.4147 25.0017 17.7445
O 42.898 26.8417 14.9652
O 32.8478 29.3069 22.1473
O 45.6894 24.379 19.8472
O 37.5774 25.2779 20.2436
O 52.028 31.2094 16.3347
O 60.6566 33.7615 14.9548
O 56.441 33.9982 19.0004
O 59.5663 30.2488 20.5809
O 49.9287 27.1804 16.5416
O 55.7161 23.0606 17.9528
O 44.1547 29.2153 18.4739
O 35.2928 27.3836 20.2816
O 39.7486 26.9373 15.7748
O 38.5735 31.1205 19.3894
O 45.8311 33.1085 48.7866
P 40.135 26.3493 17.1244
P 36.2793 30.8917 20.1763
P 32.2597 23.5741 16.8767
P 54.737 24.0738 20.5544
P 60.1992 30.2015 19.0489
P 35.0629 26.1217 19.2303
Ca 46.3419 26.6465 18.0376
Ca 36.538 34.0063 18.1936
Ca 45.5351 0.388892 17.2772
Ca 59.6867 27.3629 18.2438
Ca 37.7433 27.3223 21.1205
Ca 37.7716 0.143886 17.3462
Ca 45.6542 30.7862 16.2495
Ca 58.9393 32.7516 17.577
Ca 54.0098 27.165 17.5715
Ca 50.7423 29.7169 19.4689
O 55.2315 29.5031 22.0196
O 40.9012 30.708 19.9888
O 41.6288 30.3804 19.008
O 55.0075 30.8628 19.2951
H 54.3059 29.7478 22.3733
H 40.8902 29.3118 19.396
H 43.7932 32.8592 22.9293
H 56.0743 30.1683 22.5762
O 40.9501 25.5245 18.1793
O 58.9556 26.7492 20.2426
O 38.415 0.326083 50.635
O 50.5516 32.2444 19.6686
O 60.8568 31.0693 20.6033
O 46.5869 23.4317 22.0226
O 36.823 32.5697 19.9046
O 46.7655 29.7551 17.8041
O 32.7724 23.6438 18.4522
O 54.7099 25.2834 19.3245
O 44.6537 27.3 19.0818
O 58.8196 34.2215 19.4316
O 49.3884 24.0612 20.3285
O 36.1209 30.5055 21.5843
O 43.8334 32.3632 50.6147
O 39.4885 31.9978 31.768
O 42.0346 27.5323 19.1744
O 33.9571 27.0137 20.7774
O 40.9019 33.3908 41.5462
O 55.7714 28.4607 18.3218
O 47.6888 25.6216 21.489
O 51.8993 25.408 19.8681
O 47.945 28.9333 20.6608
O 57.7683 31.4227 16.0487
P 51.6826 24.285 20.7616
P 47.7513 29.5296 19.0153
P 44.5072 33.5884 49.9675
P 40.2905 33.4483 31.1922
P 43.1668 28.8031 19.6163
P 46.4805 24.5911 21.1739
Ca 57.1199 25.0806 18.6832
Ca 48.6542 32.3982 19.2716
Ca 34.0923 32.4228 21.6305
Ca 43.3409 25.3134 19.8763
Ca 49.0513 26.3833 20.0392
Ca 54.6227 32.8954 18.6674
Ca 56.7296 28.839 20.0587
Ca 42.0623 31.1266 25.6685
Ca 37.0818 24.5055 22.1481
Ca 34.798 28.3496 22.0914
O 38.0872 28.8173 35.2694
O 52.3024 28.4258 49.819
O 51.8291 29.1134 48.6391
O 40.7246 29.5264 50.6473
H 37.4738 27.9493 35.2788
H 51.4168 28.3747 50.6029
H 52.1462 27.9731 50.6833
H 39.6384 27.6172 50.6198
O 58.5954 7.18096 13.8648
O 76.4683 9.67007 13.8347
O 60.2391 4.83181 13.911
O 66.8639 3.04534 13.8447