1731
 Atoms. Timestep: 43841
O 2.67847 7.25223 13.9359
O 20.8284 8.64256 14.5299
O 4.3503 4.8344 13.986
O 10.5863 2.60267 13.9191
O 20.3639 1.36876 13.802
O 8.94561 5.0051 13.9831
O 24.5501 3.2816 13.8471
O 6.81326 0.853377 13.9577
O 22.5657 5.02794 13.9466
O 16.7059 6.69363 13.7909
O 6.72746 8.77771 13.7673
O 18.5624 4.85056 13.9266
O 11.7178 5.95865 15.2189
O 23.8359 0.560401 13.8596
O 4.24447 2.35532 13.8154
O 27.777 2.60576 14.2087
O 4.15287 9.75538 13.9718
O 23.7692 8.04194 13.9585
O 1.57318 3.78596 13.8873
O 17.2409 9.59812 15.3069
O 9.05147 7.5861 13.824
O 13.4914 7.24009 13.9619
O 9.14559 0.0695847 13.9726
O 17.3055 1.82167 14.3262
P 13.1396 5.90721 13.9028
P 9.72884 11.0863 14.07
P 5.16063 3.53821 14.0586
P 28.1823 3.96229 13.7805
P 5.56337 10.2541 13.9804
P 8.08196 6.38351 14.073
Ca 19.058 7.1077 13.9909
Ca 8.35081 2.87761 13.8082
Ca 22.253 2.81177 13.8003
Ca 5.0918 7.12034 13.9466
Ca 11.1804 8.21353 14.0223
Ca 14.5608 2.87589 13.961
Ca 18.7691 11.0729 13.8562
Ca 2.12361 1.67829 13.9051
Ca 26.9842 7.00413 14.0352
Ca 24.4185 10.2849 13.7892
O 28.3382 10.499 13.7953
O 14.3962 10.5024 13.7851
O 14.8648 10.8542 13.7854
O 28.8706 10.8195 13.7907
H 27.4151 10.5683 13.7309
H 13.4425 10.2828 14.01
H 15.5681 11.3095 13.8833
H 29.5421 11.3151 13.8831
O 14.0072 5.74209 16.4305
O 4.46721 6.84361 16.4702
O 15.6275 3.26299 17.9012
O 22.1153 1.28012 17.3006
O 5.58431 11.1106 15.3665
O 20.5255 3.70209 14.1757
O 7.86236 1.5935 17.1008
O 20.0149 10.7366 16.2976
O 6.36495 3.37697 15.3516
O 28.2187 5.20884 15.2708
O 18.1407 7.404 17.0865
O 2.04329 3.18201 16.1974
O 23.4407 4.49071 16.1558
O 9.32005 10.4021 18.5797
O 15.6453 0.486302 16.0319
O 11.2871 0.965434 15.5905
O 15.5689 8.07991 16.5374
O 7.19445 6.54063 44.0078
O 13.186 2.08027 15.2166
O 28.5076 7.69332 16.8963
O 20.3039 6.19203 14.8298
O 24.9899 5.3925 14.1252
O 22.4564 10.2362 15.35
O 1.19286 0.403323 15.2291
P 24.4809 4.20932 14.9586
P 21.0955 9.48374 15.829
P 16.5108 1.90627 15.7463
P 11.5356 2.33649 15.2144
P 17.1216 8.74389 16.645
P 19.8007 4.67 15.3265
Ca 2.62057 5.39448 14.9994
Ca 19.6184 1.27054 15.8697
Ca 5.64806 1.25753 15.7392
Ca 16.2996 5.437 16.1688
Ca 22.7243 6.6551 14.8059
Ca 25.8655 1.31077 13.8046
Ca 2.08482 9.22088 14.038
Ca 15.5674 11.6789 15.4857
Ca 10.2599 5.34198 16.483
Ca 7.98913 8.58009 16.2229
O 11.7263 8.91426 20.7785
O 25.5917 9.10687 15.1029
O 26.5239 8.9877 13.8714
O 12.0336 9.12712 15.9282
H 11.1586 8.80892 16.5049
H 24.4679 9.22479 14.2653
H 26.4129 10.2077 13.8579
H 12.4811 8.56338 21.7069
O 25.4838 3.84497 16.1296
O 15.8252 4.97537 18.0832
O 27.236 1.34012 16.104
O 7.21748 10.7732 14.7881
O 17.0036 9.75745 17.8397
O 3.71017 1.66932 17.7445
O 21.5618 11.1675 19.5124
O 3.59688 8.9853 17.4133
O 17.3335 1.87839 17.3258
O 11.4002 3.29349 16.5742
O 1.27161 5.48376 17.0668
O 13.659 1.62898 17.9877
O 6.61384 3.09538 19.1486
O 20.8061 8.83212 17.3058
O 29.2395 10.7539 15.678
O 24.6036 10.7602 18.6945
O 27.0177 6.68863 18.1199
O 18.9318 4.82277 16.527
O 24.4762 0.720153 17.679
O 12.2566 5.85642 18.7439
O 3.97159 4.2509 16.8715
O 8.39556 3.9802 17.3661
O 5.98326 8.21104 17.9395
O 14.14 10.1012 31.7923
P 8.04256 2.547 18.3055
P 4.5259 7.97971 17.7415
P 0.271491 0.12324 16.4939
P 22.876 0.66748 18.4582
P 28.3555 7.01752 18.2776
P 3.08305 3.27214 17.5108
Ca 13.8694 3.89737 16.8565
Ca 5.15025 10.8911 18.9078
Ca 19.0736 10.9724 18.4741
Ca 27.6911 3.9533 17.3856
Ca 5.97009 4.88911 16.8484
Ca 11.2441 10.9168 17.3875
Ca 13.7126 7.7368 15.9322
Ca 27.0857 9.85142 19.0354
Ca 21.8011 3.68942 19.1425
Ca 19.4213 6.97168 19.6328
O 23.1081 7.15272 43.5036
O 9.32936 7.29923 16.7728
O 9.77577 7.45905 15.0894
O 23.7278 7.40005 20.7391
H 22.5499 6.23287 43.563
H 8.40024 6.92025 44.5549
H 9.92133 8.69199 15.5957
H 23.0507 8.09104 21.2493
O 9.06563 2.2789 19.441
O 27.338 3.46434 19.2387
O 12.4161 11.4583 33.5141
O 19.0463 9.24423 20.0423
O 28.8951 8.10787 19.27
O 15.2662 0.244396 19.7704
O 5.05028 9.84004 45.234
O 14.8457 7.49099 19.2306
O 1.16565 0.229859 17.7672
O 23.0705 1.69834 19.6238
O 12.7366 4.32109 21.3316
O 27.2366 11.2377 20.3674
O 18.2209 0.90971 20.501
O 4.30201 7.26803 19.1903
O 12.6045 8.87948 33.8364
O 8.15756 9.31752 38.0392
O 10.7679 4.9593 20.8759
O 2.25025 3.39574 18.8303
O 9.88968 10.4083 27.5172
O 24.3262 4.37763 19.6533
O 15.5022 2.71096 19.2718
O 19.8455 2.28815 19.1782
O 17.2214 6.76599 19.9338
O 25.6169 8.2922 19.0766
P 19.623 0.813016 19.7352
P 15.9093 6.2677 19.0575
P 13.3022 10.1437 33.1021
P 8.14686 10.4944 37.236
P 12.1065 5.30934 20.2728
P 14.4986 1.37286 19.1479
Ca 25.1931 2.25013 18.9281
Ca 16.5118 9.53274 19.8495
Ca 2.47582 9.24171 39.8754
Ca 11.3956 2.14458 20.3295
Ca 17.6355 3.29616 20.0977
Ca 22.6247 9.45139 19.6245
Ca 25.1942 6.24919 19.3598
Ca 10.389 8.16123 21.8047
Ca 5.11086 2.04062 20.01
Ca 3.00032 5.51536 18.6835
O 6.77879 5.57116 49.891
O 20.608 5.50309 47.3287
O 21.1014 6.14325 43.7257
O 7.40486 5.90685 45.1817
H 6.03363 5.6865 48.7865
H 20.3985 5.71249 46.3924
H 22.6265 6.58167 44.1656
H 7.16971 6.39161 50.2356
O 4.57582 18.7457 13.9479
O 23.036 19.8573 13.9477
O 6.25251 16.312 13.9766
O 12.4685 14.3119 14.7534
O 22.2573 12.8755 13.8007
O 10.8766 16.5838 13.9805
O 26.6027 14.6119 14.0164
O 8.725 12.3639 13.9696
O 24.4892 16.5704 13.9332
O 18.5539 18.2638 13.7936
O 8.76491 20.5234 14.2297
O 20.6021 16.3862 13.8976
O 13.7268 17.8097 14.6728
O 25.7536 12.0626 13.8704
O 6.15261 13.7769 13.8291
O 29.7262 14.1675 14.662
O 6.06881 21.249 13.9591
O 25.6898 19.5674 13.9407
O 3.5706 15.3094 13.8868
O 19.2156 20.6259 13.8144
O 10.9627 19.059 13.8
O 15.3966 18.7154 13.9567
O 11.062 11.6322 13.9519
O 19.3944 13.2482 14.0188
P 15.0886 17.3944 13.8221
P 11.6134 22.6236 14.072
P 7.0193 15.0362 14.0502
P 30.0863 15.4623 13.7676
P 7.40758 21.7988 13.9611
P 10.0623 17.8412 14.0716
Ca 20.9927 18.6711 14.0062
Ca 9.88068 14.1054 13.9949
Ca 24.0123 14.1655 13.9117
Ca 6.98187 18.6522 13.9844
Ca 13.1137 19.7509 14.01
Ca 16.3153 14.2337 13.9696
Ca 20.7187 22.551 13.8571
Ca 4.10504 13.2105 13.8254
Ca 28.7478 18.5686 13.8411
Ca 26.393 21.9452 13.9972
O 30.2044 22.0298 13.7857
O 16.2345 22.0596 13.7868
O 16.765 22.3714 13.7848
O 30.7972 22.3727 13.7888
H 30.2945 21.1452 14.3243
H 16.0487 22.5178 14.5859
H 17.4695 22.8224 13.8831
H 31.4422 22.8223 13.8833
O 15.7514 17.3103 15.6101
O 6.11701 18.2884 16.463
O 17.6811 14.6301 15.8999
O 23.9163 12.088 16.9847
O 7.70736 22.7644 15.0579
O 22.3225 15.022 14.5156
O 10.0014 12.8093 18.7289
O 21.8773 22.3159 16.2767
O 8.02709 15.0548 19.5686
O 30.2362 16.5422 15.6446
O 19.6024 18.9824 15.986
O 4.04643 14.8971 16.5143
O 24.9593 15.9329 31.0346
O 11.1826 21.9637 24.3463
O 17.3281 12.2992 14.5743
O 13.2225 12.6142 17.0672
O 17.6078 19.5416 14.7886
O 8.9808 17.7341 20.8785
O 15.0154 13.7691 15.2962
O 30.4715 18.9428 15.434
O 22.3245 17.4672 15.1157
O 26.8633 16.9832 13.8806
O 24.3094 21.9867 15.596
O 2.75434 11.7331 13.9475
P 26.6061 15.8501 14.9261
P 23.1326 21.0383 15.2578
P 18.413 12.9918 15.6569
P 13.4964 13.7772 15.9564
P 18.9309 20.2025 15.2763
P 21.3438 15.9865 15.114
Ca 4.43717 16.8308 15.1396
Ca 21.5813 12.7772 15.6726
Ca 7.61402 12.8461 16.8176
Ca 18.4237 16.9514 15.5768
Ca 24.5958 18.1302 15.1982
Ca 27.8344 12.9629 13.8352
Ca 4.1844 21.0691 15.0414
Ca 17.3269 22.9889 16.3084
Ca 12.209 16.8095 17.1715
Ca 9.71156 20.1985 16.0279
O 13.5073 20.3743 17.8265
O 27.723 20.429 15.2427
O 28.177 20.7235 14.0284
O 14.3733 20.9348 13.9514
H 12.774 19.7865 18.5256
H 26.662 18.7035 14.243
H 29.5378 20.9974 13.8754
H 14.9171 20.9771 14.6756
O 27.3924 15.3622 16.1389
O 17.6734 16.8997 18.5021
O 29.0534 12.7312 15.9339
O 9.35984 22.6042 36.7731
O 19.003 21.2631 16.645
O 5.86533 13.1242 18.0854
O 23.416 23.0294 19.282
O 5.56812 20.4293 17.6074
O 19.3954 13.6244 17.5001
O 13.5053 15.1105 17.0347
O 3.2229 17.1864 17.4421
O 15.6581 13.2123 18.8745
O 8.80092 14.3735 45.4289
O 22.379 20.3519 16.843
O 30.9624 22.0891 16.9774
O 26.4306 22.4006 18.068
O 28.9443 18.1947 16.6745
O 20.6587 16.1617 16.6144
O 26.3482 12.1578 17.4939
O 14.2419 17.3357 17.6325
O 5.906 15.8748 17.5601
O 10.063 15.3918 18.3545
O 7.61076 19.7037 16.7476
O 16.225 21.335 31.1386
P 10.0401 14.1926 19.3928
P 6.46748 19.3896 17.5808
P 91.4689 12.058 15.4469
P 24.8907 12.2565 18.1061
P 30.475 18.4103 16.9941
P 4.93244 14.6492 17.7707
Ca 15.8093 15.3296 17.2183
Ca 7.05322 22.583 19.2947
Ca 20.9164 22.4154 17.6765
Ca 29.8403 15.2207 17.2843
Ca 8.07204 16.504 17.9324
Ca 13.189 22.5465 16.7471
Ca 15.4658 19.2359 17.5968
Ca 28.763 21.3557 18.194
Ca 23.5521 15.3611 18.9871
Ca 21.1035 18.5861 18.7762
O 25.0474 18.7727 19.3098
O 11.1038 18.8102 17.3993
O 11.7403 19.1901 16.4635
O 25.9884 18.9678 17.1485
H 24.348 18.6191 18.5924
H 9.04924 19.0584 21.2393
H 12.0486 20.0007 16.2134
H 27.3674 20.1363 20.4006
O 11.0074 14.016 20.6362
O 29.4339 15.175 19.0778
O 14.4849 22.8886 32.597
O 20.6369 20.8028 19.097
O 30.3061 19.1595 18.3788
O 17.0368 11.6232 20.7476
O 6.87232 21.4477 39.3722
O 16.8779 19.0889 20.0945
O 3.13486 11.7264 16.3581
O 25.1378 13.2 19.3021
O 14.4388 15.3857 19.2068
O 28.928 22.9322 19.3405
O 19.9846 12.587 20.7296
O 6.29033 18.8221 19.0641
O 14.1894 20.205 39.1957
O 9.64361 20.8684 49.8041
O 12.1758 16.4361 18.9436
O 4.19045 14.4317 19.2529
O 11.9034 21.8409 37.5889
O 25.8664 15.9501 39.6976
O 17.5747 14.1254 19.8832
O 21.7922 14.0086 19.6966
O 19.2881 18.3954 20.1044
O 27.8504 20.0592 19.6013
P 21.305 12.6695 19.9673
P 17.9101 17.6424 19.7906
P 15.4181 21.5542 32.2474
P 10.2714 21.8381 37.595
P 13.8004 16.968 19.2207
P 16.5849 12.8437 20.1292
Ca 27.3031 13.7662 18.4002
Ca 18.4323 20.7736 19.865
Ca 4.25426 20.8581 45.0431
Ca 13.2604 13.8978 19.7497
Ca 19.4517 14.8816 19.1869
Ca 24.6453 20.997 17.9435
Ca 27.0504 17.8021 18.0491
Ca 12.1748 19.7111 20.0694
Ca 7.11977 13.5753 35.3365
Ca 4.88584 17.0429 19.1775
O 8.75127 17.3121 50.5756
O 22.4451 17.1021 49.5403
O 22.7896 17.5603 48.2908
O 9.19133 17.7085 49.216
H 9.01105 15.9961 50.5328
H 21.4072 15.8884 49.5438
H 23.0148 17.9566 49.6713
H 10.2485 17.9644 50.491
O 6.50554 30.2009 13.9491
O 24.6281 31.504 14.3645
O 8.18508 27.8697 13.9863
O 14.5393 25.8066 13.8332
O 24.182 24.3902 13.8205
O 12.7873 28.067 13.9873
O 28.4972 26.2945 13.7987
O 10.5877 23.8682 13.9779
O 26.4041 28.0535 13.9374
O 20.501 29.715 13.7928
O 10.4832 31.9096 14.0144
O 22.6802 27.6545 14.358
O 15.5141 29.0479 14.8671
O 27.6683 23.5635 13.8654
O 8.06225 25.3388 13.8447
O 31.5764 25.5918 14.2461
O 7.96434 32.7884 13.9698
O 27.5468 31.0601 13.9479
O 5.39965 26.8157 13.8794
O 20.9806 32.2051 13.8433
O 12.8998 30.5539 13.793
O 17.3363 30.2589 13.9549
O 12.9402 23.1413 13.9651
O 21.2649 24.5073 14.0562
P 16.8974 29.0012 13.9252
P 13.3843 34.1866 14.0707
P 8.9885 26.5083 14.0467
P 31.9353 26.9937 13.7677
P 9.40563 33.3304 13.9846
P 12.0584 29.3848 14.0762
Ca 22.8664 30.0605 14.003
Ca 12.2179 25.7536 13.7992
Ca 25.9029 25.674 13.9707
Ca 8.79336 30.1575 13.9535
Ca 15.0004 31.3684 14.0257
Ca 18.3201 25.8683 13.9599
Ca 22.5096 34.0996 13.8582
Ca 5.95652 24.599 13.935
Ca 30.6146 30.056 14.2804
Ca 28.3075 33.3701 14.2374
O 32.147 33.5226 13.7884
O 18.1488 33.5645 13.7858
O 18.6606 33.8882 13.7933
O 32.6242 33.8985 13.7869
H 25.9904 0.0602409 13.9623
H 17.0451 32.4621 13.9801
H 19.3704 34.3373 13.8832
H 33.3455 34.3342 13.8832
O 17.9367 28.7464 20.5594
O 8.19911 29.8009 15.7625
O 19.47 26.4631 15.9578
O 25.8915 23.8286 16.2911
O 4.03013 0.067812 14.8607
O 24.4212 26.811 16.3494
O 12.2397 24.723 16.0857
O 23.8923 33.6873 15.7962
O 10.1513 26.2958 15.0607
O 32.0249 28.3731 14.135
O 21.682 30.4367 15.6576
O 6.01651 26.4104 16.785
O 26.9381 27.4201 20.0303
O 13.1051 33.359 15.4467
O 19.6604 23.7733 16.1612
O 15.127 24.1324 16.2361
O 19.3845 31.3407 16.2929
O 11.3637 29.5906 15.9283
O 16.7632 25.1765 14.7552
O 32.7256 30.3763 16.2848
O 24.3871 28.9004 15.4316
O 28.8749 28.564 14.5262
O 26.2142 33.0116 16.211
O 4.68406 23.4175 16.1315
P 28.4783 27.1921 14.9438
P 24.961 32.5323 15.2915
P 20.29 25.0737 15.6763
P 15.3613 25.2392 15.0879
P 20.5084 31.6391 15.1188
P 23.4067 27.7721 15.6884
Ca 6.40465 28.6049 15.1887
Ca 23.4939 24.156 15.6878
Ca 9.39723 24.1602 15.9787
Ca 20.2915 28.4884 15.454
Ca 26.4643 29.8428 15.4426
Ca 29.7136 24.3293 14.3002
Ca 6.08562 32.5061 14.5468
Ca 13.4184 0.0824455 16.5899
Ca 14.187 28.4575 16.3585
Ca 11.8597 31.7206 15.5992
O 15.6867 31.5753 16.4875
O 29.6526 31.8645 15.3622
O 30.2806 32.2279 13.89
O 16.3589 32.2302 14.5013
H 15.0383 31.2466 17.735
H 28.0917 30.4031 14.4903
H 30.9178 31.7969 14.2191
H 17.0517 32.569 14.484
O 29.3452 26.8448 15.8406
O 19.6707 28.0621 19.5971
O 31.2916 24.4989 16.345
O 11.5075 33.9533 19.0781
O 21.0697 32.6668 16.2837
O 7.56948 24.5844 18.0999
O 25.1014 34.4696 18.3641
O 7.31528 32.0875 16.679
O 21.3048 24.7581 16.7115
O 15.302 26.7461 15.6323
O 5.23325 28.8984 18.6482
O 17.4647 24.4293 18.5922
O 10.5469 25.8663 17.9166
O 24.2936 31.427 18.4079
O 32.8288 33.6687 16.1395
O 28.3957 33.8627 18.8503
O 30.9725 29.4475 17.1593
O 22.3348 27.9165 16.9056
O 28.1765 23.4159 16.6254
O 15.9353 29.1555 17.9834
O 7.60716 27.3267 17.8975
O 12.1718 27.0354 16.5385
O 9.47106 31.6168 17.1116
O 18.1183 33.2791 26.8001
P 11.8736 25.8732 17.317
P 8.19686 30.8871 16.9298
P 3.8674 23.1024 17.4688
P 27.0118 23.7483 17.4358
P 32.2307 29.8865 17.7013
P 6.91554 26.1204 17.9935
Ca 17.9769 26.6464 17.5994
Ca 8.93696 33.9583 17.5443
Ca 22.7824 33.9637 17.5546
Ca 31.8465 27.0185 17.1378
Ca 9.98869 27.8854 17.176
Ca 15.2128 34.2378 16.1681
Ca 17.4272 30.7916 15.7789
Ca 30.5692 32.7857 17.5313
Ca 25.4393 26.6707 18.9546
Ca 23.2904 29.9517 19.1756
O 26.93 30.4513 20.0823
O 13.0894 30.4601 20.2058
O 13.5556 30.567 17.0279
O 27.8113 30.6005 17.6589
H 26.5995 30.2575 19.1769
H 12.5536 30.2093 21.0904
H 15.3511 30.9935 15.6756
H 27.8931 30.6723 19.9448
O 12.8738 25.1844 18.2229
O 30.8095 26.442 19.0752
O 10.3642 0.0623996 29.499
O 22.6664 32.4328 19.6823
O 32.3918 30.9256 18.8286
O 18.845 23.2688 20.6054
O 8.52759 32.7838 19.4157
O 18.8139 30.3555 20.1275
O 4.91327 23.0857 18.6092
O 26.5439 24.7543 18.5121
O 16.646 27.0055 19.2193
O 25.3053 0.00290949 18.2578
O 22.0381 24.1747 21.6458
O 8.10989 29.8556 18.191
O 16.1391 31.9734 48.4698
O 11.5061 32.4582 21.2811
O 14.5839 28.0257 20.3796
O 6.01361 26.2627 19.6208
O 13.585 33.3159 20.8233
O 27.5476 27.7871 21.0984
O 19.2245 25.6316 19.7732
O 23.5492 25.5179 20.3979
O 21.1244 29.8965 20.8314
O 29.5255 31.6896 19.6414
P 23.2686 23.9066 20.5623
P 19.6604 29.1579 20.6418
P 17.4267 33.2397 28.0474
P 12.2428 33.465 20.4572
P 15.834 28.4023 19.4659
P 18.439 24.4416 19.7396
Ca 29.1613 25.2575 18.8582
Ca 20.1798 32.4253 20.4175
Ca 6.4416 32.4294 19.2048
Ca 15.2522 25.3048 19.2584
Ca 21.3217 26.403 20.7056
Ca 26.7319 32.5708 18.994
Ca 28.9009 29.1863 18.9261
Ca 14.16 31.2579 21.913
Ca 9.06705 25.1392 30.7511
Ca 6.77317 28.5865 19.5376
O 10.6503 28.8772 47.1795
O 24.5015 28.6074 44.3463
O 25.0952 28.7477 43.3063
O 11.3086 29.0081 45.7201
H 10.5632 28.3422 46.2969
H 24.5687 27.9573 43.5152
H 25.4282 29.2579 44.109
H 10.4188 29.3669 46.3486
O 30.6275 7.22042 13.9516
O 48.8364 8.77114 13.9046
O 32.3234 4.84602 13.9875
O 38.4657 2.3925 14.0618
O 48.312 1.37221 13.8127
O 36.9216 5.04284 13.9871
O 52.4539 3.1612 13.8111
O 34.7944 0.851149 13.9674
O 50.5556 5.04864 13.9321
O 44.7409 6.65216 13.7959
O 34.4238 8.99713 13.9227
O 46.7998 4.77167 13.8563
O 39.6432 5.979 14.0626
O 51.7814 0.539967 13.8731
O 32.2212 2.27669 13.8274
O 55.8889 2.896 15.7951
O 32.1214 9.75513 13.9617
O 51.732 8.00799 13.9592
O 29.599 3.826 13.8846
O 45.2365 9.45599 14.2519
O 37.0203 7.55342 13.8111
O 41.4405 7.22382 13.954
O 37.1101 0.125833 13.9859
O 45.703 1.88783 16.0064
P 41.082 5.95771 13.827
P 37.598 11.0618 14.0761
P 33.1112 3.58632 14.0356
P 56.0978 3.94175 13.7747
P 33.4556 10.2815 13.9803
P 36.1622 6.37519 14.0734
Ca 47.0902 7.1349 14.0034
Ca 36.1199 2.83217 13.9523
Ca 50.1753 2.63554 14.6069
Ca 32.9945 7.07807 13.9697
Ca 39.2571 8.29543 14.0228
Ca 42.5027 2.97507 13.9595
Ca 46.6365 10.9541 13.8574
Ca 30.0662 1.49138 13.8134
Ca 54.69 6.93489 14.8418
Ca 52.4385 10.2207 13.8504
O 56.2257 10.4918 13.7864
O 42.249 10.541 13.7863
O 42.8186 10.8983 13.7947
O 56.8087 10.8749 13.785
H 55.0631 8.26857 13.8718
H 40.923 10.8283 13.875
H 43.5151 11.3133 13.8833
H 57.4886 11.3126 13.8833
O 41.9792 5.67676 15.6586
O 32.065 6.99709 16.416
O 43.8967 3.08479 16.2507
O 49.56 1.18222 16.9651
O 33.6643 11.15 14.7427
O 48.3083 3.50784 15.4361
O 35.9218 1.37599 17.0303
O 47.9887 10.6265 15.4483
O 33.6315 3.59257 20.3244
O 55.835 4.95438 16.1034
O 45.848 7.30712 15.4776
O 30.3391 3.2678 17.5689
O 50.9192 4.32789 17.5885
O 37.3155 10.5096 17.9768
O 43.5132 0.398399 16.5676
O 39.1204 1.11756 16.3112
O 43.5437 8.27213 15.0069
O 35.2487 6.6019 19.5372
O 41.0135 2.18808 15.6405
O 56.9881 7.36437 16.8014
O 48.315 5.88772 15.4574
O 52.5983 5.64791 14.0395
O 50.6192 10.2834 15.7816
O 28.8889 0.132317 15.0547
P 52.5428 4.22573 14.7355
P 49.1023 9.52007 15.4614
P 44.5089 1.93494 16.7909
P 39.3712 2.29337 15.5017
P 44.9152 8.79073 15.4577
P 47.3985 4.72095 15.4098
Ca 30.516 5.49419 15.4324
Ca 47.6305 0.912213 15.9544
Ca 33.7721 1.13012 16.2997
Ca 44.3705 5.47821 15.3239
Ca 50.7608 6.51772 15.2527
Ca 53.8874 1.21713 13.8823
Ca 30.2093 9.33735 13.8959
Ca 43.4505 11.4479 16.4799
Ca 38.2135 5.3815 15.9248
Ca 35.8979 8.64533 16.1574
O 39.6439 8.58772 17.8728
O 53.9552 8.65782 15.5597
O 53.9075 9.43666 13.9158
O 40.0328 9.08596 15.3502
H 39.3884 7.06448 13.9292
H 52.4617 8.34048 13.9674
H 54.7855 10.3283 14.0829
H 41.3834 9.09002 13.9623
O 53.6906 4.41756 15.9728
O 43.7691 5.51604 18.1411
O 54.8926 1.63355 15.7334
O 35.6133 11.0474 34.8459
O 45.3905 9.72957 16.5529
O 31.9884 1.9552 19.0577
O 49.3963 11.5062 18.2244
O 31.638 9.24091 17.3809
O 45.4478 1.93342 19.2327
O 39.4884 3.39956 16.6208
O 29.2994 5.7309 18.4425
O 41.4494 1.55526 18.632
O 34.6815 2.80539 19.8816
O 48.7717 8.83227 16.8597
O 57.135 10.4401 16.7858
O 52.7424 10.8012 20.3289
O 54.8975 6.48415 17.4815
O 46.6676 4.71889 16.5953
O 52.3332 0.521582 16.9534
O 40.188 5.82363 15.6089
O 32.148 4.25414 18.5226
O 36.4184 3.92853 17.2175
O 34.2163 8.15853 17.7111
O 42.1144 10.1615 22.6996
P 35.9631 2.68287 17.9008
P 32.5494 7.9725 17.5167
P 28.1516 0.172043 16.4564
P 50.9355 0.659203 17.6123
P 56.2231 7.1888 18.0959
P 31.1412 3.40261 18.8479
Ca 42.0318 3.8311 16.9666
Ca 33.028 10.9503 19.6909
Ca 47.0632 11.0147 18.0843
Ca 55.9772 3.95483 17.6802
Ca 34.0355 5.13455 19.0296
Ca 39.1245 11.0279 17.3205
Ca 41.661 7.63598 16.2748
Ca 54.8096 9.74215 17.3083
Ca 49.6637 3.73956 18.9058
Ca 47.413 7.22373 18.7361
O 51.1564 7.14284 40.2654
O 37.4046 7.0441 18.0782
O 37.7848 7.65452 15.1366
O 51.7486 7.79235 20.6023
H 50.726 7.603 39.4757
H 36.5755 5.99279 19.0551
H 38.0059 8.59111 13.8993
H 52.3195 8.27628 21.2886
O 37.029 2.17339 18.8885
O 55.1317 3.67368 19.788
O 40.5424 11.5832 24.8449
O 47.0247 9.22836 19.2157
O 56.5559 7.9887 19.427
O 43.3937 0.206238 19.4047
O 32.8654 10.0149 36.307
O 43.1836 7.86984 19.8287
O 28.6228 0.245794 17.9025
O 51.035 1.597 18.9532
O 40.963 4.25302 19.7858
O 55.0996 11.3819 18.4163
O 45.9794 1.01292 20.5592
O 32.1078 6.9996 18.7897
O 40.355 8.99552 24.5479
O 36.0459 9.2116 49.6422
O 38.3819 5.03769 20.0314
O 30.1436 3.12057 20.1322
O 37.8687 10.4085 19.5165
O 51.6623 4.61217 18.963
O 43.1938 2.3829 20.6231
O 47.7027 2.61452 19.7516
O 45.3298 6.59609 20.0308
O 53.7941 8.53827 21.0498
P 47.2172 0.956665 19.2439
P 44.0548 6.30398 19.506
P 41.4849 10.1756 24.0344
P 36.4143 10.4729 50.2705
P 39.945 5.42624 19.7334
P 42.4174 1.51904 19.7603
Ca 53.39 2.13014 19.1795
Ca 44.5343 9.4341 19.5165
Ca 30.4771 9.41293 19.4012
Ca 39.4214 2.38818 18.9901
Ca 45.5804 3.33309 20.65
Ca 50.6086 9.38097 19.4343
Ca 52.9567 6.10758 19.0092
Ca 38.487 8.18717 19.3889
Ca 33.1338 2.27854 35.3949
Ca 30.7588 5.49794 19.7228
O 34.7296 5.79303 50.5706
O 48.5473 5.52451 39.534
O 49.1081 5.93333 38.3293
O 35.3335 5.99093 43.2136
H 34.3962 4.31408 50.5791
H 46.9722 4.56741 37.7715
H 51.0857 6.85957 39.3268
H 35.5438 6.9534 43.1946
O 32.5094 18.7223 13.952
O 50.6487 20.1726 14.3538
O 34.215 16.3253 13.9844
O 40.6115 14.2225 14.0366
O 50.159 12.9087 13.8118
O 38.8538 16.541 13.9823
O 54.3738 14.7163 13.8167
O 36.6766 12.3602 13.9614
O 52.3882 16.5612 13.9426
O 46.5147 18.2 13.7954
O 36.4357 20.8303 14.3501
O 48.7506 16.3915 14.0004
O 41.8073 17.4077 14.8112
O 53.6944 12.0773 13.8582
O 34.0948 13.7807 13.8293
O 57.5803 13.9137 13.9844
O 34.0168 21.3309 13.9537
O 53.5977 19.5378 13.9421
O 31.4499 15.3401 13.8734
O 47.2313 20.821 14.4122
O 38.9521 19.0383 13.7926
O 43.3852 18.7891 13.9467
O 39.0257 11.5892 13.9673
O 47.3657 13.1649 14.4114
P 42.9897 17.4296 13.8616
P 39.4942 22.6407 14.0673
P 34.9403 15.0247 14.0473
P 57.9444 15.4057 13.7803
P 35.4992 21.7418 13.9741
P 38.0215 17.7743 14.0762
Ca 48.9852 18.6467 14.0164
Ca 38.0755 14.4174 13.7633
Ca 52.0765 14.2077 13.8528
Ca 35.0022 18.6449 13.9824
Ca 41.1127 19.8605 14.0261
Ca 44.4105 14.4015 13.9562
Ca 48.6352 22.5118 13.8554
Ca 31.9909 13.149 14.8134
Ca 56.6185 18.4897 15.654
Ca 54.4201 21.8719 13.963
O 58.1407 21.992 13.7849
O 44.2102 22.0496 13.785
O 44.7257 22.4078 13.7959
O 58.7111 22.3625 13.7891
H 56.4735 21.3414 13.8232
H 43.187 21.1098 13.9207
H 45.4183 22.8245 13.8831
H 59.3905 22.8249 13.8833
O 44.3651 17.2061 20.1174
O 34.3947 18.7907 15.7282
O 45.4127 14.575 16.4928
O 52.0876 12.4558 18.482
O 35.453 22.9382 15.2311
O 50.2887 14.884 15.3289
O 37.7977 12.9832 16.4576
O 49.9018 22.2437 16.9896
O 36.0297 14.8706 18.2751
O 57.9253 16.6333 15.0334
O 48.0652 19.1169 16.2431
O 32.3096 14.6182 16.6633
O 52.8955 15.8848 33.2644
O 39.0051 22.2703 21.111
O 45.5921 12.1444 15.3151
O 40.9536 12.4183 16.0373
O 45.5049 19.5633 15.857
O 37.0578 18.013 20.3865
O 42.738 13.7854 14.3202
O 58.7444 19.0303 16.6882
O 50.4274 17.6009 15.5154
O 54.9053 17.2223 13.8884
O 52.2395 21.3734 16.1829
O 30.7907 11.3921 15.5097
P 54.5385 15.7911 14.7331
P 50.9035 20.9599 15.7525
P 46.3135 13.3866 16.0299
P 41.3252 13.9229 15.4139
P 47.0235 19.9649 16.2361
P 49.3001 16.3712 15.4724
Ca 32.5076 16.9235 15.2345
Ca 49.5645 12.5982 15.939
Ca 35.6804 12.5395 16.2371
Ca 46.3002 17.036 15.7751
Ca 52.5039 18.2594 15.0782
Ca 55.7645 12.7577 13.9479
Ca 32.1831 20.9804 14.7055
Ca 45.3686 23.0259 16.5672
Ca 40.2234 16.8979 16.8057
Ca 37.8858 20.2176 19.066
O 41.6373 20.3388 17.8544
O 55.7019 20.6522 16.0795
O 56.2628 20.4956 13.9077
O 42.1089 20.6118 15.9743
H 40.7251 19.7812 17.5884
H 54.672 19.5895 14.0047
H 56.4897 21.1975 14.5496
H 43.2734 21.0495 15.6419
O 55.2571 15.3245 16.4411
O 46.0852 16.6164 18.0661
O 57.1161 13.1754 16.7131
O 37.5342 22.3608 21.2601
O 47.0694 21.2432 17.0985
O 33.773 13.1605 17.7224
O 51.4857 22.9241 18.9382
O 33.2865 20.5704 16.8813
O 47.6011 13.3494 17.0039
O 41.6044 14.8774 16.8792
O 31.4172 17.2557 17.4656
O 43.5393 12.866 18.1669
O 36.7542 14.4111 19.3494
O 50.4321 20.2894 17.0681
O 58.85 21.8874 16.6273
O 54.2598 22.5607 17.9878
O 57.1134 17.8757 17.8313
O 48.5524 16.3897 16.8273
O 54.0659 12.1734 17.8789
O 42.1813 17.4986 18.2084
O 33.8707 15.7538 18.5468
O 38.2479 15.47 16.8795
O 35.7421 19.7125 17.303
O 44.4319 21.6302 32.0561
P 37.9112 14.2553 17.565
P 34.4532 19.3332 16.9275
P 29.9208 11.7696 16.9536
P 52.9143 12.178 19.7949
P 58.5138 18.5275 18.1016
P 32.989 14.6014 18.083
Ca 44.0628 15.3884 18.8292
Ca 34.731 22.4451 17.7595
Ca 48.8743 22.192 18.3898
Ca 57.7495 15.3678 17.9003
Ca 36.0739 16.5202 19.6438
Ca 41.1621 22.8731 16.1159
Ca 43.5204 19.3079 17.0638
Ca 56.5764 21.3971 17.5506
Ca 51.7043 15.2584 35.5721
Ca 49.0711 18.6607 18.1215
O 53.0529 18.7913 40.5965
O 39.0429 18.7452 20.0052
O 39.414 19.185 17.3643
O 53.4923 19.1309 18.2669
H 52.3461 18.0584 40.3152
H 38.6494 18.0824 20.6848
H 41.3578 19.7843 18.8977
H 54.1465 19.2874 19.1234
O 38.9663 13.5417 18.459
O 56.9753 15.1833 19.9121
O 42.5909 22.8786 34.1947
O 48.9452 20.6782 20.1686
O 58.6092 19.3059 19.384
O 45.4966 11.5525 19.8036
O 34.4517 21.4832 29.8079
O 45.1354 18.9148 19.2874
O 30.8714 11.6682 18.2651
O 52.9432 13.2277 20.8349
O 42.4479 15.5164 19.4185
O 56.454 23.0157 18.9952
O 47.6889 12.6431 19.5509
O 33.993 18.9762 18.5396
O 42.1968 20.5766 33.0645
O 38.3496 20.7174 21.7483
O 40.585 16.4927 19.8948
O 31.987 14.7997 19.3705
O 39.8511 21.9556 22.3081
O 53.6375 15.8053 37.8567
O 45.3732 14.1206 20.1821
O 49.8218 13.683 18.4109
O 47.6146 18.3068 19.3095
O 55.5577 20.1092 19.1432
P 49.2769 12.6013 19.1439
P 45.9253 17.5429 19.6008
P 43.2767 21.6084 33.1168
P 38.2839 22.1784 22.7964
P 41.8386 16.9691 19.5537
P 44.5338 13.0088 19.4881
Ca 55.406 13.5262 18.4052
Ca 46.3294 20.9322 19.9964
Ca 32.3735 21.0331 18.6558
Ca 41.1766 13.4983 18.3863
Ca 47.5856 14.6885 18.5785
Ca 52.5916 20.9645 18.8695
Ca 54.8335 17.7114 18.769
Ca 40.1698 19.829 21.6061
Ca 34.9218 13.5317 19.604
Ca 32.6119 17.012 19.7492
O 36.9613 16.96 50.628
O 50.5678 17.4645 41.6903
O 51.0002 17.6365 40.2968
O 36.9783 17.5508 49.0286
H 35.8558 17.3724 50.3477
H 48.8061 17.2421 41.9033
H 51.8355 18.2616 40.6966
H 36.3532 18.5014 49.9326
O 34.4074 30.2544 13.9602
O 52.7741 31.4032 13.9174
O 36.0964 27.8582 13.9754
O 42.3123 25.9003 13.9028
O 52.155 24.4232 13.7908
O 40.713 28.042 13.9877
O 56.5015 26.3363 13.8785
O 38.6252 23.8465 13.9746
O 54.3167 28.063 13.9191
O 48.4584 29.7335 13.7951
O 38.0873 32.1541 14.0296
O 50.6222 27.6281 13.9148
O 43.3349 28.8857 13.8952
O 55.5977 23.5335 13.8537
O 35.9932 25.2925 13.8251
O 59.6678 25.6137 14.579
O 35.961 32.7972 13.9581
O 55.5331 31.0718 13.9509
O 33.3797 26.7971 13.8853
O 49.3449 32.2712 13.7784
O 40.8352 30.5957 13.793
O 45.2707 30.2579 13.9636
O 40.9294 23.1934 13.9492
O 49.3683 25.0874 14.4017
P 44.8044 28.9508 13.8522
P 41.3885 34.0112 14.0689
P 36.9415 26.5097 14.0525
P 59.8891 26.9649 13.7656
P 37.3461 33.2886 14.0092
P 39.8758 29.3816 14.0758
Ca 50.8285 30.1732 14.0185
Ca 40.0435 25.759 13.8475
Ca 54.0375 25.7979 13.8939
Ca 36.8243 30.0633 13.9563
Ca 43.0901 31.3499 14.0139
Ca 46.3325 25.9583 13.957
Ca 50.3941 34.0467 13.8517
Ca 33.8683 24.6259 13.8434
Ca 58.4813 29.9636 13.9863
Ca 56.2471 33.3661 13.9647
O 60.0681 33.5515 13.7928
O 46.076 33.5868 13.79
O 46.602 33.8704 13.7888
O 60.6261 33.9135 13.793
H 59.7235 31.7338 14.0064
H 44.7626 32.8855 13.7655
H 47.3185 34.337 13.8832
H 61.2918 34.3362 13.8832
O 45.7062 28.6722 16.2166
O 36.4753 30.0617 16.1853
O 47.2561 25.9722 15.0061
O 54.1202 23.9298 15.7064
O 31.7046 0.00606975 14.8587
O 52.2758 26.5514 15.6264
O 39.5931 24.5952 16.0319
O 52.0177 33.7715 15.271
O 37.4561 26.4621 16.9075
O 59.6629 28.0493 15.2555
O 49.5777 30.3723 16.4825
O 33.896 26.2634 17.0745
O 54.7576 27.125 15.543
O 40.9921 33.6299 16.0815
O 47.6722 23.4981 15.7802
O 43.1837 24.2181 15.9524
O 47.4478 31.2645 14.2369
O 38.9083 29.3184 17.9471
O 44.667 25.2763 13.8646
O 60.5197 30.7082 17.3566
O 52.1844 28.9027 15.2265
O 56.7161 28.6544 14.0211
O 54.137 33.0365 15.492
O 32.9805 23.4065 15.6049
P 56.2755 27.3438 14.9326
P 52.7626 32.3422 15.3003
P 48.5754 24.9349 15.7292
P 43.506 25.2962 14.9857
P 48.6315 31.623 15.1774
P 51.2906 27.6912 15.4812
Ca 34.504 28.6757 15.3748
Ca 51.3282 24.2596 15.9143
Ca 37.4239 24.2983 15.5914
Ca 48.3998 28.569 15.5377
Ca 54.1729 29.8656 14.122
Ca 57.76 24.2308 13.8019
Ca 33.984 32.5587 14.1804
Ca 47.2656 34.3535 15.8616
Ca 42.1445 28.3524 16.351
Ca 39.7809 31.5532 15.271
O 43.5129 32.0199 17.4723
O 57.6555 31.9815 16.4164
O 58.0617 32.4101 13.9473
O 43.9996 32.0391 15.9437
H 43.0476 30.8714 17.9286
H 57.6065 32.6995 14.6804
H 59.813 32.8505 14.0821
H 44.8319 33.0745 14.4756
O 57.0839 26.9666 16.3042
O 47.7466 28.2668 18.3773
O 58.7645 24.5406 16.71
O 39.0127 33.9072 17.2914
O 48.8694 32.6966 16.076
O 35.8686 24.7936 18.2654
O 53.1542 34.4806 17.9347
O 35.1801 31.9508 17.0336
O 49.6043 24.8545 16.9298
O 43.2253 26.566 15.7911
O 33.0863 28.9461 18.4101
O 45.4724 24.5248 18.0811
O 38.1338 25.6504 17.7283
O 52.3088 31.64 16.5394
O 60.7446 33.6277 15.9317
O 56.3655 33.9319 18.4074
O 59.0258 29.7434 19.3204
O 50.2847 27.5995 16.8456
O 56.0922 23.4135 16.5183
O 44.1177 29.1094 17.8534
O 35.6114 27.3398 18.0658
O 40.0632 26.9721 16.1743
O 37.9931 31.2919 17.7053
O 46.0139 33.1088 47.004
P 39.9114 25.8788 17.0274
P 36.2961 30.8724 17.4469
P 31.9693 23.3728 16.7771
P 54.7923 23.816 17.1984
P 60.22 30.0794 18.6889
P 34.9065 26.102 18.2194
Ca 45.9176 26.8127 17.4892
Ca 36.7471 34.0117 17.7594
Ca 50.9325 34.2834 18.0859
Ca 59.6922 27.0236 17.6682
Ca 37.8611 27.8101 18.5664
Ca 43.1843 34.2996 16.0457
Ca 45.482 30.8059 15.9446
Ca 58.7168 32.8332 18.7132
Ca 53.6369 26.8792 18.7474
Ca 51.0093 29.9673 17.8543
O 55.0619 30.041 20.9699
O 40.9798 30.4056 17.4104
O 41.5698 30.5447 16.4911
O 55.3639 30.6907 18.6849
H 54.2965 29.8025 20.3717
H 40.4912 29.6705 17.4892
H 42.7101 31.6074 17.6454
H 56.172 30.793 19.1137
O 40.8288 25.3941 18.1444
O 59.0046 26.6641 19.5025
O 38.5855 0.0490201 48.439
O 50.6389 32.2701 19.6109
O 60.5215 31.0151 19.9174
O 46.9366 23.239 18.9388
O 36.703 32.736 19.1967
O 46.8095 30.2502 19.1121
O 32.7487 23.3028 18.2082
O 54.7742 24.9537 18.2194
O 44.6333 27.198 19.0969
O 58.7464 34.3905 19.8949
O 49.6824 24.1415 20.1911
O 35.9785 30.2862 18.8865
O 44.137 32.0637 48.7342
O 39.7187 32.1857 18.7991
O 42.2038 27.7805 19.0953
O 33.9348 26.4084 19.5036
O 41.4188 33.4268 26.4461
O 55.6075 27.7403 18.7552
O 47.337 25.6658 19.9404
O 51.7146 25.3686 18.9943
O 48.8034 29.4892 20.4512
O 57.6007 31.4579 17.7144
P 51.3803 24.1133 19.8152
P 47.742 29.3194 19.5443
P 44.9762 33.2904 48.1402
P 40.2302 33.5401 18.2707
P 43.5491 28.5154 19.2532
P 46.3361 24.498 19.3488
Ca 57.1535 25.198 18.5161
Ca 48.388 32.3843 19.5946
Ca 34.2266 32.3858 19.0959
Ca 43.2291 25.2626 18.5054
Ca 49.2574 26.3851 20.843
Ca 54.5316 32.6192 17.9107
Ca 56.8079 29.0759 17.7694
Ca 42.0929 31.2007 19.1592
Ca 36.9976 24.9336 20.3329
Ca 34.6677 28.4127 19.7388
O 38.3571 28.6927 47.0974
O 52.4043 28.5742 50.1982
O 52.6309 29.0205 48.8908
O 39.5251 29.1455 49.7496
H 37.6862 28.1174 46.7976
H 51.651 28.2462 48.4724
H 53.2121 28.9879 50.6526
H 39.6816 28.8802 50.6228
O 58.5875 7.192 13.9459
O 76.7107 8.86211 13.9718
O 60.2422 4.83279 13.9792
O 66.6556 2.77242 13.9366
O 76.2922 1.33241 13.8103