 DBCSR| CPU Multiplication driver                                           XSMM (U)
 DBCSR| Multrec recursion limit                                              512 (U)
 DBCSR| Multiplication stack size                                          30000 (D)
 DBCSR| Maximum elements for images                                    UNLIMITED (U)
 DBCSR| Multiplicative factor virtual images                                   1 (U)
 DBCSR| Use multiplication densification                                       F (D)
 DBCSR| Multiplication size stacks                                             3 (U)
 DBCSR| Use memory pool for CPU allocation                                     F (U)
 DBCSR| Number of 3D layers                                               SINGLE (U)
 DBCSR| Use MPI memory allocation                                              F (U)
 DBCSR| Use RMA algorithm                                                      F (U)
 DBCSR| Use Communication thread                                               T (U)
 DBCSR| Communication thread load                                             30 (D)
 DBCSR| MPI: My process id                                                     0
 DBCSR| MPI: Number of processes                                               1
 DBCSR| OMP: Current number of threads                                        16
 DBCSR| OMP: Max number of threads                                            16
 DBCSR| ACC: Number of devices/node                                            1
 DBCSR| ACC: Number of stack-buffers per thread                                8 (U)
 DBCSR| ACC: Avoid driver after busy                                           F (U)
 DBCSR| ACC: Process inhomogeneous stacks                                      T (U)
 DBCSR| ACC: Min. flop for processing                                          0 (U)
 DBCSR| ACC: Use G2G algorithm                                                 F (D)
 DBCSR| ACC: Min. flop for sorting                                          4000 (U)
 DBCSR| ACC: Number of binning bins                                         4096 (U)
 DBCSR| ACC: Size of binning bins                                             16 (U)
 DBCSR| ACC: GPU backend is enabled                                            T (D)
 DBCSR| Split modifier for TAS multiplication algorithm                  1.0E+00 (U)


  **** **** ******  **  PROGRAM STARTED AT               2025-11-04 19:55:18.488
 ***** ** ***  *** **   PROGRAM STARTED ON                          20b2b1033ca6
 **    ****   ******    PROGRAM STARTED BY                             <unknown>
 ***** **    ** ** **   PROGRAM PROCESS ID                                   614
  **** **  *******  **  PROGRAM STARTED IN                             /mnt/cp2k

 CP2K| version string:                                       CP2K version 2025.1
 CP2K| source code revision number:                                  git:9635df4
 CP2K| cp2kflags: omp libint fftw3 libxc libgrpp pexsi elpa elpa_nvidia_gpu para
 CP2K|            llel scalapack cosma quip xsmm dbcsr_acc plumed2 spglib libdft
 CP2K|            td4 sirius libvori libbqb offload_cuda spla_gemm_offloading li
 CP2K|            ibvdwxc hdf5 trexio
 CP2K| is freely available from                            https://www.cp2k.org/
 CP2K| Program compiled at                          Tue Jan 14 21:07:27 UTC 2025
 CP2K| Program compiled on                                          eb3a76499499
 CP2K| Program compiled for                                           local_cuda
 CP2K| Data directory path                                        /opt/cp2k/data
 CP2K| Input file name                                           HAP_211_opt.inp

 GLOBAL| Force Environment number                                              1
 GLOBAL| Basis set file name                                        BASIS_MOLOPT
 GLOBAL| Potential file name                                      GTH_POTENTIALS
 GLOBAL| MM Potential file name                                     MM_POTENTIAL
 GLOBAL| Coordinate file name                                  HAP_211_clean.xyz
 GLOBAL| Method name                                                        CP2K
 GLOBAL| Project name                                                HAP_211_opt
 GLOBAL| Run type                                                        GEO_OPT
 GLOBAL| FFT library                                                       FFTW3
 GLOBAL| Diagonalization library                                            ELPA
 GLOBAL| DGEMM library                                                      SPLA
 GLOBAL| Minimum number of eigenvectors for ELPA usage                        16
 GLOBAL| Orthonormality check for eigenvectors                          DISABLED
 GLOBAL| Matrix multiplication library                                     COSMA
 GLOBAL| All-to-all communication in single precision                          F
 GLOBAL| FFTs using library dependent lengths                                  F
 GLOBAL| Grid backend                                                       AUTO
 GLOBAL| Global print level                                                  LOW
 GLOBAL| MPI I/O enabled                                                       T
 GLOBAL| Total number of message passing processes                             1
 GLOBAL| Number of threads for this process                                   16
 GLOBAL| This output is from process                                           0
 GLOBAL| OpenMP stack size per thread (OMP_STACKSIZE)                        16M
 GLOBAL| CPU model name                              Intel(R) Core(TM) i7-14700K
 GLOBAL| CPUID                                                              1002
 GLOBAL| Compiled for CPUID                                                    0

 *** HINT in environment.F:928 :: The compiler target flags (generic) used ***
 *** to build this binary cannot exploit all extensions of this CPU model  ***
 *** (x86_avx2). Consider compiler target flags as part of FCFLAGS and     ***
 *** CFLAGS (ARCH file).                                                   ***


 MEMORY| system memory details [Kb]
 MEMORY|                        rank 0           min           max       average
 MEMORY| MemTotal             32768664      32768664      32768664      32768664
 MEMORY| MemFree               8048208       8048208       8048208       8048208
 MEMORY| Buffers                  6992          6992          6992          6992
 MEMORY| Cached                7402208       7402208       7402208       7402208
 MEMORY| Slab                   177744        177744        177744        177744
 MEMORY| SReclaimable            75044         75044         75044         75044
 MEMORY| MemLikelyFree        15532452      15532452      15532452      15532452


 GENERATE|  Preliminary Number of Bonds generated:                             0
 GENERATE|  Achieved consistency in connectivity generation.

 *******************************************************************************
 *******************************************************************************
 **                                                                           **
 **     #####                         ##              ##                      **
 **    ##   ##            ##          ##              ##                      **
 **   ##     ##                       ##            ######                    **
 **   ##     ##  ##   ##  ##   #####  ##  ##   ####   ##    #####    #####    **
 **   ##     ##  ##   ##  ##  ##      ## ##   ##      ##   ##   ##  ##   ##   **
 **   ##  ## ##  ##   ##  ##  ##      ####     ###    ##   ######   ######    **
 **    ##  ###   ##   ##  ##  ##      ## ##      ##   ##   ##       ##        **
 **     #######   #####   ##   #####  ##  ##  ####    ##    #####   ##        **
 **           ##                                                    ##        **
 **                                                                           **
 **                                                ... make the atoms dance   **
 **                                                                           **
 **            Copyright (C) by CP2K developers group (2000-2025)             **
 **                      J. Chem. Phys. 152, 194103 (2020)                    **
 **                                                                           **
 *******************************************************************************


 TOTAL NUMBERS AND MAXIMUM NUMBERS

  Total number of            - Atomic kinds:                                   5
                             - Atoms:                                        387
                             - Shell sets:                                   387
                             - Shells:                                      2015
                             - Primitive Cartesian functions:               2031
                             - Cartesian basis functions:                   5338
                             - Spherical basis functions:                   4983

  Maximum angular momentum of- Orbital basis functions:                        2
                             - Local part of the GTH pseudopotential:          2
                             - Non-local part of the GTH pseudopotential:      3


 SCF PARAMETERS         Density guess:                                    ATOMIC
                        --------------------------------------------------------
                        max_scf:                                             100
                        max_scf_history:                                       0
                        max_diis:                                              4
                        --------------------------------------------------------
                        eps_scf:                                        1.00E-06
                        eps_scf_history:                                0.00E+00
                        eps_diis:                                       1.00E-01
                        eps_eigval:                                     1.00E-05
                        --------------------------------------------------------
                        level_shift [a.u.]:                             0.000000
                        --------------------------------------------------------
                        Outer loop SCF in use 
                        No variables optimised in outer loop
                        eps_scf                                         1.00E-06
                        max_scf                                               50
                        No outer loop optimization
                        step_size                                       5.00E-01

 *******************************************************************************
 ***                     STARTING GEOMETRY OPTIMIZATION                      ***
 ***                                 L-BFGS                                  ***
 *******************************************************************************

 --------------------------
 OPTIMIZATION STEP:      1
 --------------------------

 Number of electrons:                                                       2432
 Number of occupied orbitals:                                               1216
 Number of molecular orbitals:                                              1216

 Number of orbital functions:                                               4983
 Number of independent orbital functions:                                   4983

 Extrapolation method: initial_guess


 SCF WAVEFUNCTION OPTIMIZATION

  ----------------------------------- OT ---------------------------------------
  Minimizer      : DIIS                : direct inversion
                                         in the iterative subspace
                                         using   7 DIIS vectors
                                         safer DIIS on
  Preconditioner : FULL_SINGLE_INVERSE : inversion of 
                                         H + eS - 2*(Sc)(c^T*H*c+const)(Sc)^T
  Precond_solver : DEFAULT
  stepsize       :    0.08000000                  energy_gap     :    0.08000000
  eps_taylor     :   0.10000E-15                  max_taylor     :             4
  ----------------------------------- OT ---------------------------------------

  Step     Update method      Time    Convergence         Total energy    Change
  ------------------------------------------------------------------------------
     1 OT DIIS     0.80E-01   41.0     0.01647733     -6694.4766570382 -6.69E+03
     2 OT DIIS     0.80E-01   44.8     0.00973876     -6769.5814555540 -7.51E+01
     3 OT DIIS     0.80E-01   39.6     0.00700364     -6801.1207810951 -3.15E+01
     4 OT DIIS     0.80E-01   37.2     0.00574138     -6830.5639279748 -2.94E+01
     5 OT DIIS     0.80E-01   43.0     0.00397066     -6845.4308727011 -1.49E+01
     6 OT DIIS     0.80E-01   40.2     0.00308677     -6857.9216620914 -1.25E+01
     7 OT DIIS     0.80E-01   39.7     0.00246286     -6866.7182691196 -8.80E+00
     8 OT DIIS     0.80E-01   52.4     0.00195807     -6873.3463383115 -6.63E+00
     9 OT DIIS     0.80E-01   38.5     0.00153281     -6878.3017991465 -4.96E+00
    10 OT DIIS     0.80E-01   35.1     0.00119958     -6881.6383710835 -3.34E+00
    11 OT DIIS     0.80E-01   23.3     0.00097008     -6883.6134253229 -1.98E+00
    12 OT DIIS     0.80E-01   25.6     0.00077784     -6885.1145003421 -1.50E+00
    13 OT DIIS     0.80E-01   24.5     0.00065740     -6885.9875828655 -8.73E-01
    14 OT DIIS     0.80E-01   26.0     0.00055087     -6886.7150668726 -7.27E-01
    15 OT DIIS     0.80E-01   25.0     0.00045925     -6887.2786248325 -5.64E-01
    16 OT DIIS     0.80E-01   21.9     0.00039724     -6887.6433799528 -3.65E-01
    17 OT DIIS     0.80E-01   25.7     0.00034577     -6887.9338591726 -2.90E-01
    18 OT DIIS     0.80E-01   24.4     0.00030351     -6888.1635016084 -2.30E-01
    19 OT DIIS     0.80E-01   26.8     0.00027067     -6888.3382296974 -1.75E-01
    20 OT DIIS     0.80E-01   23.9     0.00023756     -6888.5003206604 -1.62E-01
    21 OT DIIS     0.80E-01   25.5     0.00021127     -6888.6315335441 -1.31E-01
    22 OT DIIS     0.80E-01   24.8     0.00019032     -6888.7250415997 -9.35E-02
    23 OT DIIS     0.80E-01   26.8     0.00017014     -6888.8179876457 -9.29E-02
    24 OT DIIS     0.80E-01   23.8     0.00015432     -6888.8858545871 -6.79E-02
    25 OT DIIS     0.80E-01   24.7     0.00013891     -6888.9516903834 -6.58E-02
    26 OT DIIS     0.80E-01   24.7     0.00012687     -6889.0026873166 -5.10E-02
    27 OT DIIS     0.80E-01   25.7     0.00011725     -6889.0413533824 -3.87E-02
    28 OT DIIS     0.80E-01   25.3     0.00010758     -6889.0837303555 -4.24E-02
    29 OT DIIS     0.80E-01   22.0     0.00010044     -6889.1115892416 -2.79E-02
    30 OT DIIS     0.80E-01   25.9     0.00009334     -6889.1424877231 -3.09E-02
    31 OT DIIS     0.80E-01   23.4     0.00008679     -6889.1691014432 -2.66E-02
    32 OT DIIS     0.80E-01   26.3     0.00008158     -6889.1909231458 -2.18E-02
    33 OT DIIS     0.80E-01   24.4     0.00007624     -6889.2126315099 -2.17E-02
    34 OT DIIS     0.80E-01   24.9     0.00007113     -6889.2323784835 -1.97E-02
    35 OT DIIS     0.80E-01   24.6     0.00006681     -6889.2506658525 -1.83E-02
    36 OT DIIS     0.80E-01   25.9     0.00006282     -6889.2652456865 -1.46E-02
    37 OT DIIS     0.80E-01   24.6     0.00005919     -6889.2799948772 -1.47E-02
    38 OT DIIS     0.80E-01   24.3     0.00005582     -6889.2931298280 -1.31E-02
    39 OT DIIS     0.80E-01   24.8     0.00005303     -6889.3048622617 -1.17E-02
    40 OT DIIS     0.80E-01   25.4     0.00005057     -6889.3144023918 -9.54E-03
    41 OT DIIS     0.80E-01   24.7     0.00004792     -6889.3248854936 -1.05E-02
    42 OT DIIS     0.80E-01   23.0     0.00004573     -6889.3349299700 -1.00E-02
    43 OT DIIS     0.80E-01   25.4     0.00004392     -6889.3414857243 -6.56E-03
    44 OT DIIS     0.80E-01   25.5     0.00004205     -6889.3498749989 -8.39E-03
    45 OT DIIS     0.80E-01   25.8     0.00003980     -6889.3580533883 -8.18E-03
    46 OT DIIS     0.80E-01   22.0     0.00003814     -6889.3655702323 -7.52E-03
    47 OT DIIS     0.80E-01   24.9     0.00003662     -6889.3705932875 -5.02E-03
    48 OT DIIS     0.80E-01   24.7     0.00003449     -6889.3778591470 -7.27E-03
    49 OT DIIS     0.80E-01   26.0     0.00003286     -6889.3844189217 -6.56E-03
    50 OT DIIS     0.80E-01   24.4     0.00003156     -6889.3884740492 -4.06E-03
    51 OT DIIS     0.80E-01   23.7     0.00003012     -6889.3937922446 -5.32E-03
    52 OT DIIS     0.80E-01   25.1     0.00002875     -6889.3985730321 -4.78E-03
    53 OT DIIS     0.80E-01   25.4     0.00002788     -6889.4028898785 -4.32E-03
    54 OT DIIS     0.80E-01   25.4     0.00002698     -6889.4051738273 -2.28E-03
    55 OT DIIS     0.80E-01   21.9     0.00002560     -6889.4102114025 -5.04E-03
    56 OT DIIS     0.80E-01   25.7     0.00002417     -6889.4149482623 -4.74E-03
    57 OT DIIS     0.80E-01   24.3     0.00002337     -6889.4179666458 -3.02E-03
    58 OT DIIS     0.80E-01   26.8     0.00002257     -6889.4208243447 -2.86E-03
    59 OT DIIS     0.80E-01   23.9     0.00002166     -6889.4239945010 -3.17E-03
    60 OT DIIS     0.80E-01   25.1     0.00002110     -6889.4265970340 -2.60E-03
    61 OT DIIS     0.80E-01   24.5     0.00002062     -6889.4281451143 -1.55E-03
    62 OT DIIS     0.80E-01   26.8     0.00001989     -6889.4312901401 -3.15E-03
    63 OT DIIS     0.80E-01   23.4     0.00001919     -6889.4343817291 -3.09E-03
    64 OT DIIS     0.80E-01   24.3     0.00001865     -6889.4365948418 -2.21E-03
    65 OT DIIS     0.80E-01   24.9     0.00001819     -6889.4383404866 -1.75E-03
    66 OT DIIS     0.80E-01   25.5     0.00001769     -6889.4404675357 -2.13E-03
    67 OT DIIS     0.80E-01   25.4     0.00001720     -6889.4426701491 -2.20E-03
    68 OT DIIS     0.80E-01   21.9     0.00001683     -6889.4439511051 -1.28E-03
    69 OT DIIS     0.80E-01   25.8     0.00001631     -6889.4464539017 -2.50E-03
    70 OT DIIS     0.80E-01   24.7     0.00001600     -6889.4488287252 -2.37E-03
    71 OT DIIS     0.80E-01   26.9     0.00001569     -6889.4492705828 -4.42E-04
    72 OT DIIS     0.80E-01   22.5     0.00001494     -6889.4517262186 -2.46E-03
    73 OT DIIS     0.80E-01   25.4     0.00001454     -6889.4531306673 -1.40E-03
    74 OT DIIS     0.80E-01   24.5     0.00001415     -6889.4545239778 -1.39E-03
    75 OT DIIS     0.80E-01   26.0     0.00001386     -6889.4556335645 -1.11E-03
    76 OT DIIS     0.80E-01   24.4     0.00001361     -6889.4568890798 -1.26E-03
    77 OT DIIS     0.80E-01   23.7     0.00001347     -6889.4581676690 -1.28E-03
    78 OT DIIS     0.80E-01   25.0     0.00001327     -6889.4586361740 -4.69E-04
    79 OT DIIS     0.80E-01   25.4     0.00001305     -6889.4598615849 -1.23E-03
    80 OT DIIS     0.80E-01   29.2     0.00001284     -6889.4612016444 -1.34E-03
    81 OT DIIS     0.80E-01   27.7     0.00001247     -6889.4618459503 -6.44E-04
    82 OT DIIS     0.80E-01   22.0     0.00001224     -6889.4630113966 -1.17E-03
    83 OT DIIS     0.80E-01   25.9     0.00001201     -6889.4641911419 -1.18E-03
    84 OT DIIS     0.80E-01   25.8     0.00001188     -6889.4648610600 -6.70E-04
    85 OT DIIS     0.80E-01   26.1     0.00001169     -6889.4663882050 -1.53E-03
    86 OT DIIS     0.80E-01   24.3     0.00001150     -6889.4684267569 -2.04E-03
    87 OT DIIS     0.80E-01   25.0     0.00001134     -6889.4689195235 -4.93E-04
    88 OT DIIS     0.80E-01   27.5     0.00001124     -6889.4697261554 -8.07E-04
    89 OT DIIS     0.80E-01   22.0     0.00001097     -6889.4717074888 -1.98E-03
    90 OT DIIS     0.80E-01   25.3     0.00001095     -6889.4726751724 -9.68E-04
    91 OT DIIS     0.80E-01   24.5     0.00001089     -6889.4737692035 -1.09E-03
    92 OT DIIS     0.80E-01   26.2     0.00001052     -6889.4746969740 -9.28E-04
    93 OT DIIS     0.80E-01   24.1     0.00001044     -6889.4758497533 -1.15E-03
    94 OT DIIS     0.80E-01   24.4     0.00001046     -6889.4771522897 -1.30E-03
    95 OT DIIS     0.80E-01   24.7     0.00001004     -6889.4781794026 -1.03E-03
    96 OT DIIS     0.80E-01   24.8     0.00000941     -6889.4793446966 -1.17E-03
    97 OT DIIS     0.80E-01   25.6     0.00000924     -6889.4799793231 -6.35E-04
    98 OT DIIS     0.80E-01   22.0     0.00000909     -6889.4806406863 -6.61E-04
    99 OT DIIS     0.80E-01   25.7     0.00000898     -6889.4808671125 -2.26E-04
   100 OT DIIS     0.80E-01   24.2     0.00000893     -6889.4816845726 -8.17E-04

  Leaving inner SCF loop after reaching   100 steps.


  Electronic density on regular grids:      -2431.9999999965        0.0000000035
  Core density on regular grids:             2431.9999999988       -0.0000000012
  Total charge density on r-space grids:        0.0000000023
  Total charge density g-space grids:           0.0000000023

  Overlap energy of the core charge distribution:               0.03230852881508
  Self energy of the core charge distribution:             -16017.19408509233290
  Core Hamiltonian energy:                                   4344.03808029946867
  Hartree energy:                                            6117.60176281881741
  Exchange-correlation energy:                              -1331.92446592226861
  Dispersion energy:                                           -2.03528520513772

  Total energy:                                             -6889.48168457263910

  outer SCF iter =    1 RMS gradient =   0.89E-05 energy =      -6889.4816845726

  ----------------------------------- OT ---------------------------------------
  Minimizer      : DIIS                : direct inversion
                                         in the iterative subspace
                                         using   7 DIIS vectors
                                         safer DIIS on
  Preconditioner : FULL_SINGLE_INVERSE : inversion of 
                                         H + eS - 2*(Sc)(c^T*H*c+const)(Sc)^T
  Precond_solver : DEFAULT
  stepsize       :    0.08000000                  energy_gap     :    0.08000000
  eps_taylor     :   0.10000E-15                  max_taylor     :             4
  ----------------------------------- OT ---------------------------------------

  Step     Update method      Time    Convergence         Total energy    Change
  ------------------------------------------------------------------------------
     1 OT DIIS     0.80E-01   58.6     0.00010339     -6889.4817581221 -7.35E-05
     2 OT DIIS     0.80E-01   25.5     0.00011660     -6889.4849778492 -3.22E-03
     3 OT DIIS     0.80E-01   25.4     0.00013361     -6889.4858478324 -8.70E-04
     4 OT DIIS     0.80E-01   21.6     0.00010323     -6889.4872773687 -1.43E-03
     5 OT DIIS     0.80E-01   24.7     0.00007987     -6889.4889944369 -1.72E-03
     6 OT DIIS     0.80E-01   24.5     0.00007055     -6889.4899716121 -9.77E-04
     7 OT DIIS     0.80E-01   24.8     0.00005881     -6889.4912447444 -1.27E-03
     8 OT DIIS     0.80E-01   26.4     0.00005348     -6889.4923329607 -1.09E-03
     9 OT DIIS     0.80E-01   22.7     0.00004816     -6889.4932457994 -9.13E-04
    10 OT DIIS     0.80E-01   24.3     0.00004920     -6889.4942237956 -9.78E-04
    11 OT DIIS     0.80E-01   25.4     0.00004425     -6889.4954201460 -1.20E-03
    12 OT DIIS     0.80E-01   24.2     0.00004589     -6889.4964565950 -1.04E-03
    13 OT DIIS     0.80E-01   26.9     0.00004527     -6889.4975226496 -1.07E-03
    14 OT DIIS     0.80E-01   22.6     0.00004482     -6889.4985916825 -1.07E-03
    15 OT DIIS     0.80E-01   25.3     0.00004436     -6889.4992457051 -6.54E-04
    16 OT DIIS     0.80E-01   24.6     0.00004192     -6889.5001213587 -8.76E-04
    17 OT DIIS     0.80E-01   26.3     0.00004061     -6889.5009564167 -8.35E-04
    18 OT DIIS     0.80E-01   24.1     0.00004050     -6889.5018236319 -8.67E-04
    19 OT DIIS     0.80E-01   24.2     0.00004043     -6889.5019386537 -1.15E-04
    20 OT DIIS     0.80E-01   24.9     0.00004159     -6889.5026698149 -7.31E-04
    21 OT DIIS     0.80E-01   26.0     0.00004017     -6889.5031203495 -4.51E-04
    22 OT DIIS     0.80E-01   25.1     0.00003983     -6889.5031147627  5.59E-06
    23 OT DIIS     0.80E-01   23.6     0.00003734     -6889.5034429946 -3.28E-04
    24 OT DIIS     0.80E-01   25.1     0.00003437     -6889.5035526894 -1.10E-04
    25 OT DIIS     0.80E-01   25.4     0.00003153     -6889.5037654783 -2.13E-04
    26 OT DIIS     0.80E-01   26.0     0.00003036     -6889.5039148554 -1.49E-04
    27 OT DIIS     0.80E-01   21.9     0.00002906     -6889.5040467245 -1.32E-04
    28 OT DIIS     0.80E-01   24.9     0.00002904     -6889.5042790304 -2.32E-04
    29 OT DIIS     0.80E-01   24.6     0.00002930     -6889.5045102270 -2.31E-04
    30 OT DIIS     0.80E-01   26.0     0.00003027     -6889.5046261908 -1.16E-04
    31 OT DIIS     0.80E-01   24.5     0.00003050     -6889.5049340941 -3.08E-04
    32 OT DIIS     0.80E-01   24.3     0.00003091     -6889.5051600308 -2.26E-04
    33 OT DIIS     0.80E-01   24.8     0.00003017     -6889.5054178159 -2.58E-04
    34 OT DIIS     0.80E-01   25.8     0.00003042     -6889.5054805712 -6.28E-05
    35 OT DIIS     0.80E-01   25.2     0.00002876     -6889.5056501584 -1.70E-04
    36 OT DIIS     0.80E-01   23.2     0.00002842     -6889.5058414604 -1.91E-04
    37 OT DIIS     0.80E-01   25.4     0.00002759     -6889.5059737069 -1.32E-04
    38 OT DIIS     0.80E-01   25.5     0.00002707     -6889.5060119428 -3.82E-05
    39 OT DIIS     0.80E-01   26.3     0.00002613     -6889.5061819303 -1.70E-04
    40 OT DIIS     0.80E-01   22.1     0.00002597     -6889.5063423615 -1.60E-04
    41 OT DIIS     0.80E-01   26.0     0.00002594     -6889.5065434188 -2.01E-04
    42 OT DIIS     0.80E-01   24.7     0.00002682     -6889.5066376297 -9.42E-05
    43 OT DIIS     0.80E-01   26.9     0.00002658     -6889.5068731176 -2.35E-04
    44 OT DIIS     0.80E-01   23.2     0.00002722     -6889.5070889656 -2.16E-04
    45 OT DIIS     0.80E-01   24.6     0.00002748     -6889.5072159351 -1.27E-04
    46 OT DIIS     0.80E-01   24.9     0.00002770     -6889.5072912359 -7.53E-05
    47 OT DIIS     0.80E-01   25.9     0.00002646     -6889.5074179217 -1.27E-04
    48 OT DIIS     0.80E-01   24.8     0.00002557     -6889.5075479672 -1.30E-04
    49 OT DIIS     0.80E-01   23.8     0.00002460     -6889.5076743845 -1.26E-04
    50 OT DIIS     0.80E-01   25.0     0.00002438     -6889.5077052449 -3.09E-05
    51 OT DIIS     0.80E-01   25.6     0.00002364     -6889.5078640304 -1.59E-04
    52 OT DIIS     0.80E-01   25.5     0.00002385     -6889.5080207627 -1.57E-04
    53 OT DIIS     0.80E-01   22.0     0.00002437     -6889.5081351852 -1.14E-04
    54 OT DIIS     0.80E-01   25.6     0.00002507     -6889.5082761635 -1.41E-04
    55 OT DIIS     0.80E-01   25.2     0.00002501     -6889.5084042550 -1.28E-04
    56 OT DIIS     0.80E-01   27.0     0.00002511     -6889.5085692385 -1.65E-04
    57 OT DIIS     0.80E-01   22.3     0.00002461     -6889.5086986666 -1.29E-04
    58 OT DIIS     0.80E-01   25.4     0.00002482     -6889.5087160053 -1.73E-05
    59 OT DIIS     0.80E-01   24.5     0.00002351     -6889.5088535741 -1.38E-04
    60 OT DIIS     0.80E-01   26.5     0.00002306     -6889.5089600853 -1.07E-04
    61 OT DIIS     0.80E-01   20.5     0.00002274     -6889.5090205896 -6.05E-05
    62 OT DIIS     0.80E-01   27.7     0.00002261     -6889.5091338877 -1.13E-04
    63 OT DIIS     0.80E-01   22.1     0.00002236     -6889.5092184208 -8.45E-05
    64 OT DIIS     0.80E-01   25.4     0.00002248     -6889.5093543210 -1.36E-04
    65 OT DIIS     0.80E-01   26.1     0.00002255     -6889.5094791704 -1.25E-04
    66 OT DIIS     0.80E-01   24.0     0.00002339     -6889.5095587548 -7.96E-05
    67 OT DIIS     0.80E-01   26.0     0.00002292     -6889.5097108055 -1.52E-04
    68 OT DIIS     0.80E-01   25.5     0.00002307     -6889.5098243244 -1.14E-04
    69 OT DIIS     0.80E-01   27.1     0.00002299     -6889.5098613668 -3.70E-05
    70 OT DIIS     0.80E-01   22.4     0.00002261     -6889.5099772637 -1.16E-04
    71 OT DIIS     0.80E-01   25.3     0.00002191     -6889.5100219194 -4.47E-05
    72 OT DIIS     0.80E-01   26.4     0.00002140     -6889.5101195154 -9.76E-05
    73 OT DIIS     0.80E-01   23.6     0.00002092     -6889.5101999151 -8.04E-05
    74 OT DIIS     0.80E-01   26.0     0.00002113     -6889.5102760666 -7.62E-05
    75 OT DIIS     0.80E-01   26.1     0.00002085     -6889.5103930289 -1.17E-04
    76 OT DIIS     0.80E-01   25.8     0.00002123     -6889.5105080354 -1.15E-04
    77 OT DIIS     0.80E-01   21.7     0.00002174     -6889.5105692625 -6.12E-05
    78 OT DIIS     0.80E-01   26.0     0.00002198     -6889.5107158089 -1.47E-04
    79 OT DIIS     0.80E-01   26.1     0.00002201     -6889.5107704984 -5.47E-05
    80 OT DIIS     0.80E-01   25.4     0.00002169     -6889.5108609191 -9.04E-05
    81 OT DIIS     0.80E-01   22.9     0.00002087     -6889.5109100941 -4.92E-05
    82 OT DIIS     0.80E-01   25.4     0.00002073     -6889.5109795136 -6.94E-05
    83 OT DIIS     0.80E-01   25.6     0.00001995     -6889.5110600224 -8.05E-05
    84 OT DIIS     0.80E-01   26.2     0.00001981     -6889.5111410749 -8.11E-05
    85 OT DIIS     0.80E-01   21.9     0.00001986     -6889.5111885425 -4.75E-05
    86 OT DIIS     0.80E-01   25.3     0.00001989     -6889.5113106745 -1.22E-04
    87 OT DIIS     0.80E-01   25.0     0.00002028     -6889.5113844988 -7.38E-05
    88 OT DIIS     0.80E-01   26.4     0.00002054     -6889.5114842843 -9.98E-05
    89 OT DIIS     0.80E-01   24.3     0.00002041     -6889.5115391741 -5.49E-05
    90 OT DIIS     0.80E-01   25.1     0.00002076     -6889.5116405460 -1.01E-04
    91 OT DIIS     0.80E-01   24.8     0.00002011     -6889.5117092000 -6.87E-05
    92 OT DIIS     0.80E-01   25.5     0.00001980     -6889.5117706126 -6.14E-05
    93 OT DIIS     0.80E-01   25.6     0.00001949     -6889.5117950889 -2.45E-05
    94 OT DIIS     0.80E-01   22.0     0.00001896     -6889.5118897397 -9.47E-05
    95 OT DIIS     0.80E-01   25.9     0.00001886     -6889.5119479319 -5.82E-05
    96 OT DIIS     0.80E-01   25.0     0.00001883     -6889.5120238047 -7.59E-05
    97 OT DIIS     0.80E-01   26.9     0.00001873     -6889.5120719475 -4.81E-05
    98 OT DIIS     0.80E-01   22.6     0.00001911     -6889.5121836452 -1.12E-04
    99 OT DIIS     0.80E-01   25.3     0.00001917     -6889.5122610350 -7.74E-05
   100 OT DIIS     0.80E-01   24.8     0.00001938     -6889.5123331807 -7.21E-05

  Leaving inner SCF loop after reaching   100 steps.


  Electronic density on regular grids:      -2431.9999999967        0.0000000033
  Core density on regular grids:             2431.9999999988       -0.0000000012
  Total charge density on r-space grids:        0.0000000021
  Total charge density g-space grids:           0.0000000021

  Overlap energy of the core charge distribution:               0.03230852881508
  Self energy of the core charge distribution:             -16017.19408509233290
  Core Hamiltonian energy:                                   4343.94344975642161
  Hartree energy:                                            6117.64805039178464
  Exchange-correlation energy:                              -1331.90677156025822
  Dispersion energy:                                           -2.03528520513772

  Total energy:                                             -6889.51233318070717

  outer SCF iter =    2 RMS gradient =   0.19E-04 energy =      -6889.5123331807

  ----------------------------------- OT ---------------------------------------
  Minimizer      : DIIS                : direct inversion
                                         in the iterative subspace
                                         using   7 DIIS vectors
                                         safer DIIS on
  Preconditioner : FULL_SINGLE_INVERSE : inversion of 
                                         H + eS - 2*(Sc)(c^T*H*c+const)(Sc)^T
  Precond_solver : DEFAULT
  stepsize       :    0.08000000                  energy_gap     :    0.08000000
  eps_taylor     :   0.10000E-15                  max_taylor     :             4
  ----------------------------------- OT ---------------------------------------

  Step     Update method      Time    Convergence         Total energy    Change
  ------------------------------------------------------------------------------
     1 OT DIIS     0.80E-01   57.5     0.00001987     -6889.5123661945 -3.30E-05
     2 OT DIIS     0.80E-01   23.8     0.00006352     -6889.5123756725 -9.48E-06
     3 OT DIIS     0.80E-01   25.3     0.00001782     -6889.5125248885 -1.49E-04
     4 OT DIIS     0.80E-01   24.7     0.00001671     -6889.5125605822 -3.57E-05
     5 OT DIIS     0.80E-01   21.9     0.00002221     -6889.5130331926 -4.73E-04
     6 OT DIIS     0.80E-01   25.7     0.00004627     -6889.5153427303 -2.31E-03
     7 OT DIIS     0.80E-01   24.3     0.00004021     -6889.5154022396 -5.95E-05
     8 OT SD       0.80E-01   26.5     0.00004262     -6889.5154226056 -2.04E-05
     9 OT DIIS     0.80E-01   24.1     0.00010241     -6889.5150745808  3.48E-04
    10 OT DIIS     0.80E-01   25.1     0.00003021     -6889.5159752058 -9.01E-04
    11 OT SD       0.80E-01   24.8     0.00003131     -6889.5161719541 -1.97E-04
    12 OT DIIS     0.80E-01   25.9     0.00006266     -6889.5160836817  8.83E-05
    13 OT DIIS     0.80E-01   24.7     0.00002238     -6889.5161002112 -1.65E-05
    14 OT DIIS     0.80E-01   23.8     0.00002369     -6889.5164052432 -3.05E-04
    15 OT SD       0.80E-01   25.0     0.00002570     -6889.5166528520 -2.48E-04
    16 OT DIIS     0.80E-01   25.5     0.00012936     -6889.5161096156  5.43E-04
    17 OT DIIS     0.80E-01   25.6     0.00001185     -6889.5166597073 -5.50E-04
    18 OT SD       0.80E-01   21.9     0.00001212     -6889.5168014473 -1.42E-04
    19 OT DIIS     0.80E-01   25.9     0.00004062     -6889.5167807682  2.07E-05
    20 OT DIIS     0.80E-01   24.4     0.00001438     -6889.5169730622 -1.92E-04
    21 OT SD       0.80E-01   26.9     0.00000932     -6889.5171696954 -1.97E-04
    22 OT DIIS     0.80E-01   22.7     0.00002383     -6889.5171803451 -1.06E-05
    23 OT DIIS     0.80E-01   25.4     0.00000967     -6889.5172807900 -1.00E-04
    24 OT DIIS     0.80E-01   24.8     0.00000859     -6889.5173909879 -1.10E-04
    25 OT DIIS     0.80E-01   25.9     0.00000855     -6889.5174510696 -6.01E-05
    26 OT DIIS     0.80E-01   24.5     0.00000830     -6889.5175130726 -6.20E-05
    27 OT DIIS     0.80E-01   24.5     0.00000830     -6889.5176566865 -1.44E-04
    28 OT SD       0.80E-01   24.9     0.00000770     -6889.5177392529 -8.26E-05
    29 OT DIIS     0.80E-01   25.9     0.00001660     -6889.5177511776 -1.19E-05
    30 OT DIIS     0.80E-01   24.9     0.00000834     -6889.5178344674 -8.33E-05
    31 OT DIIS     0.80E-01   23.1     0.00000760     -6889.5179139790 -7.95E-05
    32 OT DIIS     0.80E-01   25.4     0.00000843     -6889.5180032606 -8.93E-05
    33 OT DIIS     0.80E-01   25.8     0.00000692     -6889.5180840179 -8.08E-05
    34 OT SD       0.80E-01   25.3     0.00000780     -6889.5181648002 -8.08E-05
    35 OT SD       0.80E-01   22.2     0.00001955     -6889.5181668061 -2.01E-06
    36 OT DIIS     0.80E-01   25.6     0.00009216     -6889.5178665860  3.00E-04
    37 OT DIIS     0.80E-01   25.6     0.00000620     -6889.5181929183 -3.26E-04
    38 OT DIIS     0.80E-01   26.4     0.00000611     -6889.5182492344 -5.63E-05
    39 OT DIIS     0.80E-01   22.1     0.00000640     -6889.5182778249 -2.86E-05
    40 OT DIIS     0.80E-01   25.4     0.00000765     -6889.5182980192 -2.02E-05
    41 OT SD       0.80E-01   22.7     0.00000647     -6889.5183680784 -7.01E-05
    42 OT DIIS     0.80E-01   20.5     0.00002115     -6889.5183653870  2.69E-06
    43 OT DIIS     0.80E-01   26.1     0.00000657     -6889.5184848511 -1.19E-04
    44 OT DIIS     0.80E-01   26.7     0.00000624     -6889.5185600283 -7.52E-05
    45 OT SD       0.80E-01   23.9     0.00000570     -6889.5185858397 -2.58E-05
    46 OT DIIS     0.80E-01   25.0     0.00000915     -6889.5185937128 -7.87E-06
    47 OT DIIS     0.80E-01   27.8     0.00000559     -6889.5186257309 -3.20E-05
    48 OT SD       0.80E-01   21.9     0.00000585     -6889.5186783484 -5.26E-05
    49 OT DIIS     0.80E-01   26.0     0.00001839     -6889.5186766378  1.71E-06
    50 OT DIIS     0.80E-01   25.7     0.00000528     -6889.5187803066 -1.04E-04
    51 OT DIIS     0.80E-01   26.2     0.00000549     -6889.5188225229 -4.22E-05
    52 OT SD       0.80E-01   23.7     0.00000638     -6889.5188530043 -3.05E-05
    53 OT SD       0.80E-01   25.2     0.00002125     -6889.5188460950  6.91E-06
    54 OT DIIS     0.80E-01   27.8     0.00011701     -6889.5183797025  4.66E-04
    55 OT DIIS     0.80E-01   22.0     0.00000443     -6889.5188586850 -4.79E-04
    56 OT DIIS     0.80E-01   26.0     0.00000430     -6889.5188693170 -1.06E-05
    57 OT DIIS     0.80E-01   25.0     0.00000458     -6889.5188795465 -1.02E-05
    58 OT DIIS     0.80E-01   27.0     0.00000464     -6889.5188798258 -2.79E-07
    59 OT DIIS     0.80E-01   22.6     0.00000425     -6889.5188930991 -1.33E-05
    60 OT DIIS     0.80E-01   25.1     0.00000449     -6889.5189049776 -1.19E-05
    61 OT DIIS     0.80E-01   27.8     0.00000437     -6889.5189255234 -2.05E-05
    62 OT SD       0.80E-01   22.6     0.00000413     -6889.5189741367 -4.86E-05
    63 OT DIIS     0.80E-01   26.0     0.00001029     -6889.5189770555 -2.92E-06
    64 OT DIIS     0.80E-01   26.1     0.00000411     -6889.5190041792 -2.71E-05
    65 OT DIIS     0.80E-01   26.4     0.00000411     -6889.5190272698 -2.31E-05
    66 OT DIIS     0.80E-01   24.3     0.00000398     -6889.5190492125 -2.19E-05
    67 OT DIIS     0.80E-01   25.1     0.00000424     -6889.5190552490 -6.04E-06
    68 OT DIIS     0.80E-01   27.6     0.00000377     -6889.5190959024 -4.07E-05
    69 OT SD       0.80E-01   21.8     0.00000393     -6889.5191210194 -2.51E-05
    70 OT DIIS     0.80E-01   25.9     0.00001236     -6889.5191212144 -1.95E-07
    71 OT DIIS     0.80E-01   26.1     0.00000359     -6889.5191399234 -1.87E-05
    72 OT DIIS     0.80E-01   24.9     0.00000366     -6889.5191583935 -1.85E-05
    73 OT SD       0.80E-01   24.4     0.00000361     -6889.5191948207 -3.64E-05
    74 OT DIIS     0.80E-01   25.5     0.00000932     -6889.5191967193 -1.90E-06
    75 OT DIIS     0.80E-01   27.7     0.00000361     -6889.5192162993 -1.96E-05
    76 OT SD       0.80E-01   22.2     0.00000410     -6889.5192224207 -6.12E-06
    77 OT DIIS     0.80E-01   26.0     0.00001602     -6889.5192180240  4.40E-06
    78 OT DIIS     0.80E-01   25.8     0.00000335     -6889.5192390528 -2.10E-05
    79 OT DIIS     0.80E-01   26.8     0.00000321     -6889.5192428316 -3.78E-06
    80 OT SD       0.80E-01   22.4     0.00000347     -6889.5192822072 -3.94E-05
    81 OT DIIS     0.80E-01   22.6     0.00001109     -6889.5192820726  1.35E-07
    82 OT DIIS     0.80E-01   17.7     0.00000300     -6889.5192856889 -3.62E-06
    83 OT SD       0.80E-01   19.4     0.00000356     -6889.5193245381 -3.88E-05
    84 OT DIIS     0.80E-01   23.6     0.00001285     -6889.5193226080  1.93E-06
    85 OT DIIS     0.80E-01   25.1     0.00000293     -6889.5193563461 -3.37E-05
    86 OT DIIS     0.80E-01   24.5     0.00000306     -6889.5193829520 -2.66E-05
    87 OT SD       0.80E-01   26.1     0.00000338     -6889.5193879655 -5.01E-06
    88 OT DIIS     0.80E-01   24.4     0.00001095     -6889.5193870543  9.11E-07
    89 OT DIIS     0.80E-01   23.6     0.00000362     -6889.5194059120 -1.89E-05
    90 OT DIIS     0.80E-01   25.2     0.00000352     -6889.5194167616 -1.08E-05
    91 OT DIIS     0.80E-01   25.4     0.00000270     -6889.5194222068 -5.45E-06
    92 OT DIIS     0.80E-01   25.7     0.00000298     -6889.5194408951 -1.87E-05
    93 OT DIIS     0.80E-01   21.8     0.00000341     -6889.5194780797 -3.72E-05
    94 OT SD       0.80E-01   26.0     0.00000382     -6889.5194959555 -1.79E-05
    95 OT SD       0.80E-01   24.2     0.00001134     -6889.5194944212  1.53E-06
    96 OT DIIS     0.80E-01   26.9     0.00005909     -6889.5193711481  1.23E-04
    97 OT DIIS     0.80E-01   23.7     0.00000279     -6889.5194777031 -1.07E-04
    98 OT DIIS     0.80E-01   25.1     0.00000255     -6889.5194876546 -9.95E-06
    99 OT SD       0.80E-01   24.4     0.00000247     -6889.5194901577 -2.50E-06
   100 OT DIIS     0.80E-01   25.6     0.00000609     -6889.5194914639 -1.31E-06

  Leaving inner SCF loop after reaching   100 steps.


  Electronic density on regular grids:      -2431.9999999967        0.0000000033
  Core density on regular grids:             2431.9999999988       -0.0000000012
  Total charge density on r-space grids:        0.0000000021
  Total charge density g-space grids:           0.0000000021

  Overlap energy of the core charge distribution:               0.03230852881508
  Self energy of the core charge distribution:             -16017.19408509233290
  Core Hamiltonian energy:                                   4343.90862969720638
  Hartree energy:                                            6117.66482230752263
  Exchange-correlation energy:                              -1331.89588169993362
  Dispersion energy:                                           -2.03528520513772

  Total energy:                                             -6889.51949146385959

  outer SCF iter =    3 RMS gradient =   0.61E-05 energy =      -6889.5194914639

  ----------------------------------- OT ---------------------------------------
  Minimizer      : DIIS                : direct inversion
                                         in the iterative subspace
                                         using   7 DIIS vectors
                                         safer DIIS on
  Preconditioner : FULL_SINGLE_INVERSE : inversion of 
                                         H + eS - 2*(Sc)(c^T*H*c+const)(Sc)^T
  Precond_solver : DEFAULT
  stepsize       :    0.08000000                  energy_gap     :    0.08000000
  eps_taylor     :   0.10000E-15                  max_taylor     :             4
  ----------------------------------- OT ---------------------------------------

  Step     Update method      Time    Convergence         Total energy    Change
  ------------------------------------------------------------------------------
     1 OT DIIS     0.80E-01   55.5     0.00000264     -6889.5194937620 -2.30E-06
     2 OT DIIS     0.80E-01   24.9     0.00000766     -6889.5194945616 -8.00E-07
     3 OT DIIS     0.80E-01   25.7     0.00000238     -6889.5194967821 -2.22E-06
     4 OT DIIS     0.80E-01   22.0     0.00000234     -6889.5194976338 -8.52E-07
     5 OT DIIS     0.80E-01   24.2     0.00000251     -6889.5195023519 -4.72E-06
     6 OT DIIS     0.80E-01   24.9     0.00000242     -6889.5195122959 -9.94E-06
     7 OT DIIS     0.80E-01   23.7     0.00000240     -6889.5195268469 -1.46E-05
     8 OT DIIS     0.80E-01   26.2     0.00000219     -6889.5195336632 -6.82E-06
     9 OT DIIS     0.80E-01   23.9     0.00000219     -6889.5195366452 -2.98E-06
    10 OT DIIS     0.80E-01   21.4     0.00000214     -6889.5195419957 -5.35E-06
    11 OT DIIS     0.80E-01   25.3     0.00000221     -6889.5195469647 -4.97E-06
    12 OT DIIS     0.80E-01   24.0     0.00000213     -6889.5195540342 -7.07E-06
    13 OT DIIS     0.80E-01   25.2     0.00000216     -6889.5195646135 -1.06E-05
    14 OT SD       0.80E-01   25.6     0.00000227     -6889.5195786593 -1.40E-05
    15 OT DIIS     0.80E-01   21.9     0.00000625     -6889.5195792510 -5.92E-07
    16 OT DIIS     0.80E-01   24.1     0.00000213     -6889.5195895611 -1.03E-05
    17 OT DIIS     0.80E-01   24.8     0.00000222     -6889.5196118732 -2.23E-05
    18 OT DIIS     0.80E-01   23.4     0.00000221     -6889.5196284983 -1.66E-05
    19 OT DIIS     0.80E-01   26.2     0.00000200     -6889.5196301219 -1.62E-06
    20 OT DIIS     0.80E-01   23.8     0.00000249     -6889.5196426250 -1.25E-05
    21 OT SD       0.80E-01   22.2     0.00000278     -6889.5196568328 -1.42E-05
    22 OT DIIS     0.80E-01   25.5     0.00001116     -6889.5196540333  2.80E-06
    23 OT DIIS     0.80E-01   24.1     0.00000206     -6889.5196632091 -9.18E-06
    24 OT SD       0.80E-01   25.6     0.00000286     -6889.5196817845 -1.86E-05
    25 OT DIIS     0.80E-01   24.5     0.00001198     -6889.5196783044  3.48E-06
    26 OT DIIS     0.80E-01   21.4     0.00000228     -6889.5196783486 -4.43E-08
    27 OT DIIS     0.80E-01   24.9     0.00000166     -6889.5196853885 -7.04E-06
    28 OT SD       0.80E-01   24.4     0.00000178     -6889.5196856070 -2.19E-07
    29 OT DIIS     0.80E-01   25.0     0.00000586     -6889.5196855698  3.72E-08
    30 OT SD       0.80E-01   26.4     0.00000166     -6889.5196967446 -1.12E-05
    31 OT DIIS     0.80E-01   22.8     0.00000425     -6889.5196971032 -3.59E-07
    32 OT DIIS     0.80E-01   23.4     0.00000168     -6889.5197027669 -5.66E-06
    33 OT DIIS     0.80E-01   25.4     0.00000159     -6889.5197110207 -8.25E-06
    34 OT DIIS     0.80E-01   23.7     0.00000145     -6889.5197147573 -3.74E-06
    35 OT DIIS     0.80E-01   25.6     0.00000140     -6889.5197167361 -1.98E-06
    36 OT DIIS     0.80E-01   25.5     0.00000153     -6889.5197224435 -5.71E-06
    37 OT SD       0.80E-01   22.7     0.00000156     -6889.5197265173 -4.07E-06
    38 OT DIIS     0.80E-01   25.5     0.00000506     -6889.5197265108  6.52E-09
    39 OT DIIS     0.80E-01   25.4     0.00000146     -6889.5197409783 -1.45E-05
    40 OT SD       0.80E-01   26.8     0.00000148     -6889.5197421759 -1.20E-06
    41 OT DIIS     0.80E-01   21.8     0.00000426     -6889.5197423158 -1.40E-07
    42 OT DIIS     0.80E-01   25.3     0.00000153     -6889.5197542954 -1.20E-05
    43 OT DIIS     0.80E-01   24.9     0.00000144     -6889.5197586003 -4.30E-06
    44 OT DIIS     0.80E-01   26.4     0.00000154     -6889.5197595941 -9.94E-07
    45 OT DIIS     0.80E-01   24.1     0.00000135     -6889.5197672918 -7.70E-06
    46 OT SD       0.80E-01   24.8     0.00000141     -6889.5197710072 -3.72E-06
    47 OT DIIS     0.80E-01   24.6     0.00000365     -6889.5197711787 -1.72E-07
    48 OT DIIS     0.80E-01   25.7     0.00000147     -6889.5197748128 -3.63E-06
    49 OT DIIS     0.80E-01   26.2     0.00000136     -6889.5197783343 -3.52E-06
    50 OT SD       0.80E-01   22.1     0.00000125     -6889.5197798138 -1.48E-06
    51 OT DIIS     0.80E-01   25.5     0.00000331     -6889.5197799944 -1.81E-07
    52 OT DIIS     0.80E-01   24.7     0.00000132     -6889.5197886767 -8.68E-06
    53 OT SD       0.80E-01   26.8     0.00000118     -6889.5197915313 -2.85E-06
    54 OT SD       0.80E-01   23.8     0.00000249     -6889.5197918495 -3.18E-07
    55 OT DIIS     0.80E-01   25.0     0.00001298     -6889.5197866036  5.25E-06
    56 OT DIIS     0.80E-01   24.7     0.00000107     -6889.5197946161 -8.01E-06
    57 OT SD       0.80E-01   25.8     0.00000106     -6889.5197962102 -1.59E-06
    58 OT DIIS     0.80E-01   24.9     0.00000226     -6889.5197965305 -3.20E-07
    59 OT DIIS     0.80E-01   23.3     0.00000107     -6889.5198016035 -5.07E-06
    60 OT SD       0.80E-01   25.3     0.00000121     -6889.5198046345 -3.03E-06
    61 OT DIIS     0.80E-01   25.7     0.00000419     -6889.5198044886  1.46E-07
    62 OT DIIS     0.80E-01   25.5     0.00000102     -6889.5198067693 -2.28E-06
    63 OT DIIS     0.80E-01   21.8     0.00000106     -6889.5198113116 -4.54E-06
    64 OT DIIS     0.80E-01   26.0     0.00000104     -6889.5198126841 -1.37E-06
    65 OT SD       0.80E-01   22.3     0.00000104     -6889.5198129372 -2.53E-07
    66 OT DIIS     0.80E-01   19.7     0.00000280     -6889.5198130867 -1.50E-07
    67 OT SD       0.80E-01   25.6     0.00000101     -6889.5198154597 -2.37E-06
    68 OT DIIS     0.80E-01   27.7     0.00000259     -6889.5198156424 -1.83E-07
    69 OT SD       0.80E-01   22.7     0.00000113     -6889.5198200939 -4.45E-06
    70 OT DIIS     0.80E-01   25.9     0.00000404     -6889.5198199298  1.64E-07
    71 OT DIIS     0.80E-01   26.4     0.00000102     -6889.5198219468 -2.02E-06
    72 OT DIIS     0.80E-01   26.5     0.00000119     -6889.5198280716 -6.12E-06
    73 OT SD       0.80E-01   22.5     0.00000126     -6889.5198343121 -6.24E-06
    74 OT SD       0.80E-01   25.3     0.00000229     -6889.5198344884 -1.76E-07
    75 OT DIIS     0.80E-01   27.3     0.00000945     -6889.5198314927  3.00E-06
    76 OT DIIS     0.80E-01   23.0     0.00000090     -6889.5198308329  6.60E-07

  *** SCF run converged in    76 steps ***


  Electronic density on regular grids:      -2431.9999999967        0.0000000033
  Core density on regular grids:             2431.9999999988       -0.0000000012
  Total charge density on r-space grids:        0.0000000021
  Total charge density g-space grids:           0.0000000021

  Overlap energy of the core charge distribution:               0.03230852881508
  Self energy of the core charge distribution:             -16017.19408509233290
  Core Hamiltonian energy:                                   4343.91025387680565
  Hartree energy:                                            6117.66301649198249
  Exchange-correlation energy:                              -1331.89603943299198
  Dispersion energy:                                           -2.03528520513772

  Total energy:                                             -6889.51983083285904

  outer SCF iter =    4 RMS gradient =   0.90E-06 energy =      -6889.5198308329
  outer SCF loop converged in   4 iterations or  376 steps


 ENERGY| Total FORCE_EVAL ( QS ) energy [hartree]          -6889.519833207332340

 Number of electrons:                                                       2432
 Number of occupied orbitals:                                               1216
 Number of molecular orbitals:                                              1216

 Number of orbital functions:                                               4983
 Number of independent orbital functions:                                   4983

 Extrapolation method: ASPC


 SCF WAVEFUNCTION OPTIMIZATION

  ----------------------------------- OT ---------------------------------------
  Minimizer      : DIIS                : direct inversion
                                         in the iterative subspace
                                         using   7 DIIS vectors
                                         safer DIIS on
  Preconditioner : FULL_SINGLE_INVERSE : inversion of 
                                         H + eS - 2*(Sc)(c^T*H*c+const)(Sc)^T
  Precond_solver : DEFAULT
  stepsize       :    0.08000000                  energy_gap     :    0.08000000
  eps_taylor     :   0.10000E-15                  max_taylor     :             4
  ----------------------------------- OT ---------------------------------------

  Step     Update method      Time    Convergence         Total energy    Change
  ------------------------------------------------------------------------------
     1 OT DIIS     0.80E-01   24.4     0.00571304     -6880.5038008143 -6.88E+03
     2 OT DIIS     0.80E-01   24.3     0.00463658     -6893.9037368124 -1.34E+01
     3 OT DIIS     0.80E-01   25.5     0.00373740     -6902.1671848840 -8.26E+00
     4 OT DIIS     0.80E-01   25.0     0.00205944     -6907.3451323653 -5.18E+00
     5 OT DIIS     0.80E-01   27.5     0.00161116     -6908.5585123878 -1.21E+00
     6 OT DIIS     0.80E-01   21.8     0.00136790     -6909.0274715182 -4.69E-01
     7 OT DIIS     0.80E-01   26.0     0.00098017     -6909.2628668001 -2.35E-01
     8 OT DIIS     0.80E-01   26.1     0.00052526     -6909.4267846909 -1.64E-01
     9 OT DIIS     0.80E-01   26.4     0.00049334     -6909.5418344829 -1.15E-01
    10 OT DIIS     0.80E-01   22.1     0.00035804     -6909.6175217687 -7.57E-02
    11 OT DIIS     0.80E-01   25.6     0.00032691     -6909.6686558996 -5.11E-02
    12 OT DIIS     0.80E-01   24.6     0.00025439     -6909.7284152166 -5.98E-02
    13 OT DIIS     0.80E-01   26.9     0.00023891     -6909.7702691535 -4.19E-02
    14 OT DIIS     0.80E-01   23.8     0.00022017     -6909.8219008093 -5.16E-02
    15 OT DIIS     0.80E-01   24.8     0.00019275     -6909.8567649206 -3.49E-02
    16 OT DIIS     0.80E-01   24.9     0.00018981     -6909.8804308831 -2.37E-02
    17 OT DIIS     0.80E-01   26.0     0.00016824     -6909.9035220634 -2.31E-02
    18 OT DIIS     0.80E-01   24.1     0.00015802     -6909.9214008256 -1.79E-02
    19 OT DIIS     0.80E-01   22.9     0.00015554     -6909.9460722156 -2.47E-02
    20 OT DIIS     0.80E-01   25.4     0.00014740     -6909.9608966818 -1.48E-02
    21 OT DIIS     0.80E-01   25.6     0.00014205     -6909.9791037137 -1.82E-02
    22 OT DIIS     0.80E-01   26.0     0.00013788     -6910.0000674419 -2.10E-02
    23 OT DIIS     0.80E-01   21.9     0.00013662     -6910.0167320347 -1.67E-02
    24 OT DIIS     0.80E-01   26.1     0.00013603     -6910.0340239184 -1.73E-02
    25 OT DIIS     0.80E-01   24.9     0.00013113     -6910.0465976788 -1.26E-02
    26 OT DIIS     0.80E-01   27.1     0.00012486     -6910.0616934927 -1.51E-02
    27 OT DIIS     0.80E-01   22.7     0.00012491     -6910.0785833798 -1.69E-02
    28 OT DIIS     0.80E-01   25.5     0.00012310     -6910.0915313858 -1.29E-02
    29 OT DIIS     0.80E-01   24.5     0.00011812     -6910.1088709575 -1.73E-02
    30 OT DIIS     0.80E-01   26.5     0.00011549     -6910.1260110261 -1.71E-02
    31 OT DIIS     0.80E-01   24.0     0.00011481     -6910.1387164137 -1.27E-02
    32 OT DIIS     0.80E-01   24.8     0.00011135     -6910.1520748857 -1.34E-02
    33 OT DIIS     0.80E-01   25.0     0.00010885     -6910.1722121060 -2.01E-02
    34 OT DIIS     0.80E-01   25.9     0.00012059     -6910.1912641798 -1.91E-02
    35 OT DIIS     0.80E-01   25.8     0.00010622     -6910.2018312416 -1.06E-02
    36 OT DIIS     0.80E-01   22.0     0.00010480     -6910.2078680627 -6.04E-03
    37 OT DIIS     0.80E-01   25.8     0.00009500     -6910.2123578281 -4.49E-03
    38 OT DIIS     0.80E-01   25.0     0.00014601     -6910.2402208121 -2.79E-02
    39 OT DIIS     0.80E-01   26.9     0.00009898     -6910.2503002727 -1.01E-02
    40 OT DIIS     0.80E-01   22.4     0.00010016     -6910.2606321522 -1.03E-02
    41 OT DIIS     0.80E-01   25.7     0.00010906     -6910.2675157185 -6.88E-03
    42 OT DIIS     0.80E-01   24.7     0.00007868     -6910.2689193735 -1.40E-03
    43 OT DIIS     0.80E-01   26.9     0.00005734     -6910.2749722964 -6.05E-03
    44 OT DIIS     0.80E-01   23.9     0.00006148     -6910.2816658422 -6.69E-03
    45 OT DIIS     0.80E-01   25.1     0.00005486     -6910.2895810257 -7.92E-03
    46 OT DIIS     0.80E-01   24.8     0.00004717     -6910.2904188514 -8.38E-04
    47 OT DIIS     0.80E-01   26.1     0.00004344     -6910.2940035226 -3.58E-03
    48 OT DIIS     0.80E-01   24.4     0.00004299     -6910.2970166935 -3.01E-03
    49 OT DIIS     0.80E-01   24.3     0.00004043     -6910.2990397807 -2.02E-03
    50 OT DIIS     0.80E-01   24.8     0.00007890     -6910.3018706692 -2.83E-03
    51 OT DIIS     0.80E-01   25.1     0.00003707     -6910.3023644397 -4.94E-04
    52 OT DIIS     0.80E-01   25.7     0.00003593     -6910.3038571085 -1.49E-03
    53 OT DIIS     0.80E-01   22.1     0.00002925     -6910.3056588861 -1.80E-03
    54 OT DIIS     0.80E-01   25.8     0.00002888     -6910.3067758820 -1.12E-03
    55 OT DIIS     0.80E-01   26.0     0.00002779     -6910.3076973988 -9.22E-04
    56 OT DIIS     0.80E-01   27.0     0.00002593     -6910.3088322083 -1.13E-03
    57 OT DIIS     0.80E-01   22.1     0.00002490     -6910.3094051038 -5.73E-04
    58 OT DIIS     0.80E-01   25.2     0.00002275     -6910.3106344729 -1.23E-03
    59 OT DIIS     0.80E-01   24.7     0.00002370     -6910.3106586553 -2.42E-05
    60 OT DIIS     0.80E-01   26.1     0.00002155     -6910.3115676884 -9.09E-04
    61 OT DIIS     0.80E-01   24.0     0.00002081     -6910.3121985546 -6.31E-04
    62 OT DIIS     0.80E-01   25.3     0.00001920     -6910.3132326735 -1.03E-03
    63 OT DIIS     0.80E-01   24.7     0.00001902     -6910.3136440660 -4.11E-04
    64 OT DIIS     0.80E-01   26.5     0.00001781     -6910.3141432121 -4.99E-04
    65 OT DIIS     0.80E-01   24.1     0.00001759     -6910.3144386026 -2.95E-04
    66 OT DIIS     0.80E-01   24.9     0.00001664     -6910.3149487307 -5.10E-04
    67 OT DIIS     0.80E-01   23.4     0.00001712     -6910.3153944052 -4.46E-04
    68 OT DIIS     0.80E-01   21.2     0.00001650     -6910.3159516428 -5.57E-04
    69 OT DIIS     0.80E-01   25.5     0.00001544     -6910.3162030445 -2.51E-04
    70 OT DIIS     0.80E-01   27.7     0.00001483     -6910.3167169960 -5.14E-04
    71 OT DIIS     0.80E-01   21.8     0.00001481     -6910.3169661987 -2.49E-04
    72 OT DIIS     0.80E-01   26.0     0.00001457     -6910.3174384496 -4.72E-04
    73 OT DIIS     0.80E-01   26.2     0.00001478     -6910.3178611119 -4.23E-04
    74 OT DIIS     0.80E-01   25.1     0.00001402     -6910.3183793734 -5.18E-04
    75 OT DIIS     0.80E-01   25.7     0.00001353     -6910.3188658526 -4.86E-04
    76 OT DIIS     0.80E-01   25.3     0.00001334     -6910.3190902650 -2.24E-04
    77 OT DIIS     0.80E-01   27.5     0.00001317     -6910.3193818259 -2.92E-04
    78 OT DIIS     0.80E-01   22.1     0.00001265     -6910.3200045024 -6.23E-04
    79 OT DIIS     0.80E-01   25.9     0.00001317     -6910.3203944350 -3.90E-04
    80 OT DIIS     0.80E-01   25.6     0.00001262     -6910.3209311792 -5.37E-04
    81 OT DIIS     0.80E-01   25.9     0.00001217     -6910.3211515300 -2.20E-04
    82 OT DIIS     0.80E-01   22.1     0.00001158     -6910.3211619722 -1.04E-05
    83 OT DIIS     0.80E-01   25.1     0.00001184     -6910.3216364411 -4.74E-04
    84 OT DIIS     0.80E-01   24.6     0.00001178     -6910.3223302852 -6.94E-04
    85 OT DIIS     0.80E-01   26.2     0.00001123     -6910.3227526180 -4.22E-04
    86 OT DIIS     0.80E-01   24.4     0.00001088     -6910.3231631600 -4.11E-04
    87 OT DIIS     0.80E-01   24.4     0.00001040     -6910.3233645177 -2.01E-04
    88 OT DIIS     0.80E-01   24.7     0.00001028     -6910.3234615451 -9.70E-05
    89 OT DIIS     0.80E-01   25.8     0.00000946     -6910.3235665127 -1.05E-04
    90 OT DIIS     0.80E-01   25.1     0.00000937     -6910.3238048119 -2.38E-04
    91 OT DIIS     0.80E-01   22.1     0.00000900     -6910.3242249945 -4.20E-04
    92 OT DIIS     0.80E-01   25.7     0.00000884     -6910.3244128722 -1.88E-04
    93 OT DIIS     0.80E-01   25.5     0.00000856     -6910.3245811025 -1.68E-04
    94 OT DIIS     0.80E-01   26.9     0.00000832     -6910.3247270279 -1.46E-04
    95 OT DIIS     0.80E-01   22.1     0.00000837     -6910.3247983011 -7.13E-05
    96 OT DIIS     0.80E-01   25.5     0.00000805     -6910.3250081677 -2.10E-04
    97 OT DIIS     0.80E-01   24.4     0.00000804     -6910.3252408501 -2.33E-04
    98 OT DIIS     0.80E-01   26.7     0.00000803     -6910.3254310721 -1.90E-04
    99 OT DIIS     0.80E-01   23.5     0.00000783     -6910.3255779010 -1.47E-04
   100 OT DIIS     0.80E-01   24.6     0.00000769     -6910.3256592727 -8.14E-05

  Leaving inner SCF loop after reaching   100 steps.


  Electronic density on regular grids:      -2431.9999999910        0.0000000090
  Core density on regular grids:             2431.9999999988       -0.0000000012
  Total charge density on r-space grids:        0.0000000078
  Total charge density g-space grids:           0.0000000078

  Overlap energy of the core charge distribution:               0.01937594680223
  Self energy of the core charge distribution:             -16017.19408509233290
  Core Hamiltonian energy:                                   4299.49102280517036
  Hartree energy:                                            6136.97981753123713
  Exchange-correlation energy:                              -1327.58788709730743
  Dispersion energy:                                           -2.03390336626118

  Total energy:                                             -6910.32565927269206

  outer SCF iter =    1 RMS gradient =   0.77E-05 energy =      -6910.3256592727

  ----------------------------------- OT ---------------------------------------
  Minimizer      : DIIS                : direct inversion
                                         in the iterative subspace
                                         using   7 DIIS vectors
                                         safer DIIS on
  Preconditioner : FULL_SINGLE_INVERSE : inversion of 
                                         H + eS - 2*(Sc)(c^T*H*c+const)(Sc)^T
  Precond_solver : DEFAULT
  stepsize       :    0.08000000                  energy_gap     :    0.08000000
  eps_taylor     :   0.10000E-15                  max_taylor     :             4
  ----------------------------------- OT ---------------------------------------

  Step     Update method      Time    Convergence         Total energy    Change
  ------------------------------------------------------------------------------
     1 OT DIIS     0.80E-01   59.0     0.00003590     -6910.3257997625 -1.40E-04
     2 OT DIIS     0.80E-01   24.3     0.00003032     -6910.3263431489 -5.43E-04
     3 OT DIIS     0.80E-01   21.3     0.00004097     -6910.3267274443 -3.84E-04
     4 OT DIIS     0.80E-01   24.9     0.00003238     -6910.3270699270 -3.42E-04
     5 OT DIIS     0.80E-01   24.6     0.00003084     -6910.3274012492 -3.31E-04
     6 OT DIIS     0.80E-01   25.3     0.00002692     -6910.3277010107 -3.00E-04
     7 OT DIIS     0.80E-01   25.7     0.00002301     -6910.3279800035 -2.79E-04
     8 OT DIIS     0.80E-01   22.0     0.00002206     -6910.3282312774 -2.51E-04
     9 OT DIIS     0.80E-01   24.4     0.00002167     -6910.3284043854 -1.73E-04
    10 OT DIIS     0.80E-01   24.8     0.00002120     -6910.3286622338 -2.58E-04
    11 OT DIIS     0.80E-01   25.1     0.00001971     -6910.3289616639 -2.99E-04
    12 OT DIIS     0.80E-01   26.5     0.00001975     -6910.3293662748 -4.05E-04
    13 OT DIIS     0.80E-01   23.2     0.00001938     -6910.3297582304 -3.92E-04
    14 OT DIIS     0.80E-01   24.5     0.00001892     -6910.3300468572 -2.89E-04
    15 OT DIIS     0.80E-01   25.3     0.00001944     -6910.3302873128 -2.40E-04
    16 OT DIIS     0.80E-01   25.1     0.00001888     -6910.3305758451 -2.89E-04
    17 OT DIIS     0.80E-01   27.0     0.00001758     -6910.3310289235 -4.53E-04
    18 OT DIIS     0.80E-01   22.2     0.00001651     -6910.3314345545 -4.06E-04
    19 OT DIIS     0.80E-01   25.6     0.00001604     -6910.3316859448 -2.51E-04
    20 OT DIIS     0.80E-01   24.6     0.00001720     -6910.3318587422 -1.73E-04
    21 OT DIIS     0.80E-01   26.9     0.00001769     -6910.3321726585 -3.14E-04
    22 OT DIIS     0.80E-01   23.3     0.00001768     -6910.3326066106 -4.34E-04
    23 OT DIIS     0.80E-01   25.2     0.00001719     -6910.3330003627 -3.94E-04
    24 OT SD       0.80E-01   24.6     0.00001611     -6910.3331185790 -1.18E-04
    25 OT SD       0.80E-01   26.2     0.00002993     -6910.3331737177 -5.51E-05
    26 OT DIIS     0.80E-01   24.6     0.00013771     -6910.3325531308  6.21E-04
    27 OT DIIS     0.80E-01   24.7     0.00001338     -6910.3333606064 -8.07E-04
    28 OT DIIS     0.80E-01   24.7     0.00001715     -6910.3336069227 -2.46E-04
    29 OT SD       0.80E-01   26.1     0.00001585     -6910.3338160115 -2.09E-04
    30 OT DIIS     0.80E-01   25.5     0.00005710     -6910.3337470070  6.90E-05
    31 OT SD       0.80E-01   22.1     0.00002118     -6910.3344937022 -7.47E-04
    32 OT SD       0.80E-01   25.6     0.00004629     -6910.3344449323  4.88E-05
    33 OT DIIS     0.80E-01   24.7     0.00018909     -6910.3330556774  1.39E-03
    34 OT DIIS     0.80E-01   27.1     0.00001154     -6910.3346046083 -1.55E-03
    35 OT DIIS     0.80E-01   23.6     0.00001281     -6910.3347017767 -9.72E-05
    36 OT SD       0.80E-01   25.2     0.00000955     -6910.3347630827 -6.13E-05
    37 OT DIIS     0.80E-01   24.7     0.00002651     -6910.3347631796 -9.69E-08
    38 OT SD       0.80E-01   26.6     0.00000846     -6910.3349138705 -1.51E-04
    39 OT DIIS     0.80E-01   24.9     0.00002524     -6910.3349105580  3.31E-06
    40 OT DIIS     0.80E-01   23.8     0.00000821     -6910.3350200439 -1.09E-04
    41 OT DIIS     0.80E-01   24.7     0.00000873     -6910.3350560094 -3.60E-05
    42 OT DIIS     0.80E-01   25.9     0.00000649     -6910.3351106629 -5.47E-05
    43 OT SD       0.80E-01   25.0     0.00000649     -6910.3351385314 -2.79E-05
    44 OT DIIS     0.80E-01   23.5     0.00001400     -6910.3351481387 -9.61E-06
    45 OT DIIS     0.80E-01   20.8     0.00000605     -6910.3351849552 -3.68E-05
    46 OT DIIS     0.80E-01   25.1     0.00000572     -6910.3352055456 -2.06E-05
    47 OT DIIS     0.80E-01   27.9     0.00000606     -6910.3352423182 -3.68E-05
    48 OT DIIS     0.80E-01   26.2     0.00000548     -6910.3353035522 -6.12E-05
    49 OT DIIS     0.80E-01   24.6     0.00000674     -6910.3353492149 -4.57E-05
    50 OT DIIS     0.80E-01   24.9     0.00000568     -6910.3353802561 -3.10E-05
    51 OT DIIS     0.80E-01   24.8     0.00000485     -6910.3353971901 -1.69E-05
    52 OT DIIS     0.80E-01   26.0     0.00000540     -6910.3354317451 -3.46E-05
    53 OT DIIS     0.80E-01   24.8     0.00000475     -6910.3354631069 -3.14E-05
    54 OT DIIS     0.80E-01   23.6     0.00000460     -6910.3354871213 -2.40E-05
    55 OT DIIS     0.80E-01   25.2     0.00000453     -6910.3355103086 -2.32E-05
    56 OT DIIS     0.80E-01   26.0     0.00000454     -6910.3355356604 -2.54E-05
    57 OT DIIS     0.80E-01   25.3     0.00000455     -6910.3355520098 -1.63E-05
    58 OT DIIS     0.80E-01   22.1     0.00000470     -6910.3355687112 -1.67E-05
    59 OT DIIS     0.80E-01   26.2     0.00000430     -6910.3355971134 -2.84E-05
    60 OT DIIS     0.80E-01   25.6     0.00000421     -6910.3356121221 -1.50E-05
    61 OT DIIS     0.80E-01   26.2     0.00000444     -6910.3356319046 -1.98E-05
    62 OT DIIS     0.80E-01   22.0     0.00000428     -6910.3356528320 -2.09E-05
    63 OT DIIS     0.80E-01   24.8     0.00000432     -6910.3356857900 -3.30E-05
    64 OT DIIS     0.80E-01   24.9     0.00000421     -6910.3357120018 -2.62E-05
    65 OT DIIS     0.80E-01   26.0     0.00000415     -6910.3357430029 -3.10E-05
    66 OT SD       0.80E-01   24.6     0.00000406     -6910.3357562874 -1.33E-05
    67 OT SD       0.80E-01   23.7     0.00000480     -6910.3357632973 -7.01E-06
    68 OT DIIS     0.80E-01   25.1     0.00001403     -6910.3357632305  6.68E-08
    69 OT DIIS     0.80E-01   25.5     0.00000396     -6910.3357824325 -1.92E-05
    70 OT DIIS     0.80E-01   26.0     0.00000401     -6910.3357828440 -4.11E-07
    71 OT DIIS     0.80E-01   22.1     0.00000396     -6910.3358197199 -3.69E-05
    72 OT DIIS     0.80E-01   25.8     0.00000415     -6910.3358678646 -4.81E-05
    73 OT SD       0.80E-01   24.7     0.00000458     -6910.3359310956 -6.32E-05
    74 OT SD       0.80E-01   27.0     0.00001092     -6910.3359331492 -2.05E-06
    75 OT DIIS     0.80E-01   23.7     0.00005076     -6910.3358398117  9.33E-05
    76 OT DIIS     0.80E-01   25.1     0.00000385     -6910.3359821512 -1.42E-04
    77 OT DIIS     0.80E-01   24.8     0.00000393     -6910.3360141480 -3.20E-05
    78 OT DIIS     0.80E-01   26.1     0.00000419     -6910.3360344375 -2.03E-05
    79 OT DIIS     0.80E-01   23.9     0.00000346     -6910.3360533172 -1.89E-05
    80 OT SD       0.80E-01   22.4     0.00000360     -6910.3360726415 -1.93E-05
    81 OT DIIS     0.80E-01   25.0     0.00000608     -6910.3360769571 -4.32E-06
    82 OT DIIS     0.80E-01   26.2     0.00000370     -6910.3361177051 -4.07E-05
    83 OT DIIS     0.80E-01   25.5     0.00000367     -6910.3361420288 -2.43E-05
    84 OT SD       0.80E-01   22.5     0.00000402     -6910.3361904803 -4.85E-05
    85 OT SD       0.80E-01   25.6     0.00000673     -6910.3361947184 -4.24E-06
    86 OT DIIS     0.80E-01   25.4     0.00002918     -6910.3361674694  2.72E-05
    87 OT DIIS     0.80E-01   27.0     0.00000326     -6910.3361829821 -1.55E-05
    88 OT DIIS     0.80E-01   22.1     0.00000330     -6910.3361902063 -7.22E-06
    89 OT SD       0.80E-01   25.5     0.00000370     -6910.3362393970 -4.92E-05
    90 OT DIIS     0.80E-01   24.5     0.00000944     -6910.3362409712 -1.57E-06
    91 OT SD       0.80E-01   26.5     0.00000373     -6910.3362925344 -5.16E-05
    92 OT DIIS     0.80E-01   24.2     0.00000984     -6910.3362929839 -4.49E-07
    93 OT DIIS     0.80E-01   24.9     0.00000394     -6910.3363242053 -3.12E-05
    94 OT SD       0.80E-01   24.9     0.00000359     -6910.3363837339 -5.95E-05
    95 OT SD       0.80E-01   25.6     0.00000529     -6910.3363871090 -3.38E-06
    96 OT DIIS     0.80E-01   26.2     0.00002138     -6910.3363732797  1.38E-05
    97 OT DIIS     0.80E-01   22.0     0.00000306     -6910.3364174769 -4.42E-05
    98 OT SD       0.80E-01   25.9     0.00000334     -6910.3364437650 -2.63E-05
    99 OT DIIS     0.80E-01   24.5     0.00000748     -6910.3364454694 -1.70E-06
   100 OT DIIS     0.80E-01   27.0     0.00000283     -6910.3364807874 -3.53E-05

  Leaving inner SCF loop after reaching   100 steps.


  Electronic density on regular grids:      -2431.9999999910        0.0000000090
  Core density on regular grids:             2431.9999999988       -0.0000000012
  Total charge density on r-space grids:        0.0000000078
  Total charge density g-space grids:           0.0000000078

  Overlap energy of the core charge distribution:               0.01937594680223
  Self energy of the core charge distribution:             -16017.19408509233290
  Core Hamiltonian energy:                                   4299.43389161457617
  Hartree energy:                                            6137.02126063185733
  Exchange-correlation energy:                              -1327.58302052209069
  Dispersion energy:                                           -2.03390336626118

  Total energy:                                             -6910.33648078744864

  outer SCF iter =    2 RMS gradient =   0.28E-05 energy =      -6910.3364807874

  ----------------------------------- OT ---------------------------------------
  Minimizer      : DIIS                : direct inversion
                                         in the iterative subspace
                                         using   7 DIIS vectors
                                         safer DIIS on
  Preconditioner : FULL_SINGLE_INVERSE : inversion of 
                                         H + eS - 2*(Sc)(c^T*H*c+const)(Sc)^T
  Precond_solver : DEFAULT
  stepsize       :    0.08000000                  energy_gap     :    0.08000000
  eps_taylor     :   0.10000E-15                  max_taylor     :             4
  ----------------------------------- OT ---------------------------------------

  Step     Update method      Time    Convergence         Total energy    Change
  ------------------------------------------------------------------------------
     1 OT DIIS     0.80E-01   54.0     0.00000333     -6910.3364909626 -1.02E-05
     2 OT DIIS     0.80E-01   25.8     0.00000935     -6910.3364915823 -6.20E-07
     3 OT DIIS     0.80E-01   24.4     0.00000292     -6910.3364951673 -3.58E-06
     4 OT DIIS     0.80E-01   21.1     0.00000280     -6910.3364968579 -1.69E-06
     5 OT DIIS     0.80E-01   24.4     0.00000268     -6910.3364986490 -1.79E-06
     6 OT DIIS     0.80E-01   25.0     0.00000266     -6910.3365013566 -2.71E-06
     7 OT DIIS     0.80E-01   24.0     0.00000266     -6910.3365073253 -5.97E-06
     8 OT DIIS     0.80E-01   26.4     0.00000262     -6910.3365149036 -7.58E-06
     9 OT DIIS     0.80E-01   24.0     0.00000262     -6910.3365207454 -5.84E-06
    10 OT DIIS     0.80E-01   21.4     0.00000259     -6910.3365308542 -1.01E-05
    11 OT DIIS     0.80E-01   25.1     0.00000259     -6910.3365375735 -6.72E-06
    12 OT DIIS     0.80E-01   24.1     0.00000256     -6910.3365436153 -6.04E-06
    13 OT DIIS     0.80E-01   24.3     0.00000254     -6910.3365503661 -6.75E-06
    14 OT DIIS     0.80E-01   26.7     0.00000256     -6910.3365598472 -9.48E-06
    15 OT DIIS     0.80E-01   23.6     0.00000253     -6910.3365709286 -1.11E-05
    16 OT DIIS     0.80E-01   22.8     0.00000255     -6910.3365809200 -9.99E-06
    17 OT SD       0.80E-01   25.7     0.00000251     -6910.3365989458 -1.80E-05
    18 OT DIIS     0.80E-01   23.5     0.00000424     -6910.3366011971 -2.25E-06
    19 OT DIIS     0.80E-01   25.8     0.00000249     -6910.3366148754 -1.37E-05
    20 OT DIIS     0.80E-01   24.5     0.00000259     -6910.3366270676 -1.22E-05
    21 OT DIIS     0.80E-01   21.4     0.00000256     -6910.3366515859 -2.45E-05
    22 OT DIIS     0.80E-01   25.1     0.00000244     -6910.3366580568 -6.47E-06
    23 OT DIIS     0.80E-01   24.4     0.00000248     -6910.3366595157 -1.46E-06
    24 OT SD       0.80E-01   25.6     0.00000256     -6910.3366890314 -2.95E-05
    25 OT SD       0.80E-01   26.6     0.00000507     -6910.3366907229 -1.69E-06
    26 OT DIIS     0.80E-01   23.2     0.00002275     -6910.3366732988  1.74E-05
    27 OT DIIS     0.80E-01   24.1     0.00000232     -6910.3367025038 -2.92E-05
    28 OT DIIS     0.80E-01   25.1     0.00000235     -6910.3367177570 -1.53E-05
    29 OT DIIS     0.80E-01   21.6     0.00000247     -6910.3367336436 -1.59E-05
    30 OT DIIS     0.80E-01   20.0     0.00000248     -6910.3367391138 -5.47E-06
    31 OT SD       0.80E-01   25.4     0.00000253     -6910.3367747726 -3.57E-05
    32 OT SD       0.80E-01   26.1     0.00000334     -6910.3367767556 -1.98E-06
    33 OT DIIS     0.80E-01   25.5     0.00001177     -6910.3367734539  3.30E-06
    34 OT DIIS     0.80E-01   24.5     0.00000214     -6910.3367884234 -1.50E-05
    35 OT SD       0.80E-01   25.3     0.00000251     -6910.3368131739 -2.48E-05
    36 OT DIIS     0.80E-01   27.9     0.00000516     -6910.3368143380 -1.16E-06
    37 OT DIIS     0.80E-01   21.8     0.00000221     -6910.3368372262 -2.29E-05
    38 OT SD       0.80E-01   26.0     0.00000300     -6910.3368557823 -1.86E-05
    39 OT SD       0.80E-01   26.2     0.00000946     -6910.3368545249  1.26E-06
    40 OT DIIS     0.80E-01   21.8     0.00004940     -6910.3367673982  8.71E-05
    41 OT DIIS     0.80E-01   19.5     0.00000256     -6910.3368760198 -1.09E-04
    42 OT SD       0.80E-01   17.8     0.00000262     -6910.3368899649 -1.39E-05
    43 OT DIIS     0.80E-01   27.2     0.00000514     -6910.3368907733 -8.08E-07
    44 OT DIIS     0.80E-01   22.2     0.00000228     -6910.3368967571 -5.98E-06
    45 OT SD       0.80E-01   25.6     0.00000260     -6910.3369158048 -1.90E-05
    46 OT DIIS     0.80E-01   24.9     0.00000805     -6910.3369149474  8.57E-07
    47 OT DIIS     0.80E-01   26.9     0.00000262     -6910.3369282888 -1.33E-05
    48 OT DIIS     0.80E-01   24.1     0.00000198     -6910.3369430724 -1.48E-05
    49 OT SD       0.80E-01   25.2     0.00000323     -6910.3369590491 -1.60E-05
    50 OT SD       0.80E-01   24.7     0.00000857     -6910.3369578673  1.18E-06
    51 OT DIIS     0.80E-01   26.2     0.00004020     -6910.3368964959  6.14E-05
    52 OT DIIS     0.80E-01   24.6     0.00000235     -6910.3369493611 -5.29E-05
    53 OT DIIS     0.80E-01   24.1     0.00000165     -6910.3369491462  2.15E-07
    54 OT DIIS     0.80E-01   25.2     0.00000158     -6910.3369492410 -9.48E-08
    55 OT SD       0.80E-01   25.7     0.00000157     -6910.3369503848 -1.14E-06
    56 OT DIIS     0.80E-01   26.0     0.00000335     -6910.3369510545 -6.70E-07
    57 OT DIIS     0.80E-01   22.0     0.00000160     -6910.3369524539 -1.40E-06
    58 OT DIIS     0.80E-01   24.6     0.00000155     -6910.3369577504 -5.30E-06
    59 OT DIIS     0.80E-01   25.2     0.00000141     -6910.3369602880 -2.54E-06
    60 OT DIIS     0.80E-01   25.8     0.00000154     -6910.3369622840 -2.00E-06
    61 OT DIIS     0.80E-01   25.0     0.00000151     -6910.3369631341 -8.50E-07
    62 OT SD       0.80E-01   23.8     0.00000133     -6910.3369645998 -1.47E-06
    63 OT DIIS     0.80E-01   25.1     0.00000213     -6910.3369652775 -6.78E-07
    64 OT DIIS     0.80E-01   25.9     0.00000130     -6910.3369682863 -3.01E-06
    65 OT DIIS     0.80E-01   26.5     0.00000134     -6910.3369703422 -2.06E-06
    66 OT DIIS     0.80E-01   22.2     0.00000135     -6910.3369718151 -1.47E-06
    67 OT DIIS     0.80E-01   25.7     0.00000140     -6910.3369743919 -2.58E-06
    68 OT DIIS     0.80E-01   24.9     0.00000133     -6910.3369801207 -5.73E-06
    69 OT DIIS     0.80E-01   26.9     0.00000123     -6910.3369834941 -3.37E-06
    70 OT DIIS     0.80E-01   24.0     0.00000126     -6910.3369847144 -1.22E-06
    71 OT DIIS     0.80E-01   25.0     0.00000120     -6910.3369906728 -5.96E-06
    72 OT DIIS     0.80E-01   24.6     0.00000126     -6910.3369948203 -4.15E-06
    73 OT DIIS     0.80E-01   25.8     0.00000125     -6910.3370029895 -8.17E-06
    74 OT DIIS     0.80E-01   24.7     0.00000118     -6910.3370077594 -4.77E-06
    75 OT DIIS     0.80E-01   22.0     0.00000113     -6910.3370093309 -1.57E-06
    76 OT DIIS     0.80E-01   25.9     0.00000117     -6910.3370111795 -1.85E-06
    77 OT DIIS     0.80E-01   24.3     0.00000117     -6910.3370164566 -5.28E-06
    78 OT DIIS     0.80E-01   26.8     0.00000125     -6910.3370210381 -4.58E-06
    79 OT DIIS     0.80E-01   24.0     0.00000122     -6910.3370231213 -2.08E-06
    80 OT DIIS     0.80E-01   25.1     0.00000111     -6910.3370299497 -6.83E-06
    81 OT SD       0.80E-01   24.7     0.00000119     -6910.3370332424 -3.29E-06
    82 OT DIIS     0.80E-01   27.1     0.00000350     -6910.3370332428 -4.50E-10
    83 OT DIIS     0.80E-01   24.1     0.00000108     -6910.3370348382 -1.60E-06
    84 OT DIIS     0.80E-01   25.0     0.00000110     -6910.3370397665 -4.93E-06
    85 OT DIIS     0.80E-01   24.7     0.00000100     -6910.3370419508 -2.18E-06

  *** SCF run converged in    85 steps ***


  Electronic density on regular grids:      -2431.9999999910        0.0000000090
  Core density on regular grids:             2431.9999999988       -0.0000000012
  Total charge density on r-space grids:        0.0000000078
  Total charge density g-space grids:           0.0000000078

  Overlap energy of the core charge distribution:               0.01937594680223
  Self energy of the core charge distribution:             -16017.19408509233290
  Core Hamiltonian energy:                                   4299.43172268374565
  Hartree energy:                                            6137.02165836801487
  Exchange-correlation energy:                              -1327.58181049076234
  Dispersion energy:                                           -2.03390336626118

  Total energy:                                             -6910.33704195079281

  outer SCF iter =    3 RMS gradient =   0.10E-05 energy =      -6910.3370419508
  outer SCF loop converged in   3 iterations or  285 steps


 ENERGY| Total FORCE_EVAL ( QS ) energy [hartree]          -6910.337046108049435

 OPT| **************************************************************************
 OPT| Step number                                                              1
 OPT| Optimization method                                                  LBFGS
 OPT| Total energy [hartree]                                    -6910.3370461080
 OPT| Effective energy change [hartree]                           -20.8172129007
 OPT| Decrease in energy                                                     YES
 OPT| Used time [s]                                                    16689.828
 OPT|
 OPT| Maximum step size                                             0.4724315332
 OPT| Convergence limit for maximum step size                       0.0030000000
 OPT| Maximum step size is converged                                          NO
 OPT|
[...]
  Total charge density on r-space grids:        0.0000001158
  Total charge density g-space grids:           0.0000001158

  Overlap energy of the core charge distribution:               0.00000825542579
  Self energy of the core charge distribution:             -16017.19408509233290
  Core Hamiltonian energy:                                   4266.23087794211096
  Hartree energy:                                            6151.03798438123067
  Exchange-correlation energy:                              -1320.78702315683017
  Dispersion energy:                                           -1.97498518060183

  Total energy:                                             -6922.68722285099830

  outer SCF iter =    1 RMS gradient =   0.83E-06 energy =      -6922.6872228510
  outer SCF loop converged in   1 iterations or   11 steps


 ENERGY| Total FORCE_EVAL ( QS ) energy [hartree]          -6922.687222953103628

 OPT| **************************************************************************
 OPT| Step number                                                             94
 OPT| Optimization method                                                  LBFGS
 OPT| Total energy [hartree]                                    -6922.6872229531
 OPT| Effective energy change [hartree]                            -0.0015675045
 OPT| Decrease in energy                                                     YES
 OPT| Used time [s]                                                      315.863
 OPT|
 OPT| Maximum step size                                             0.0358111122
 OPT| Convergence limit for maximum step size                       0.0030000000
 OPT| Maximum step size is converged                                          NO
 OPT|
 OPT| RMS step size                                                 0.0039706841
 OPT| Convergence limit for RMS step size                           0.0015000000
 OPT| RMS step size is converged                                              NO
 OPT|
 OPT| Maximum gradient                                              0.0117918321
 OPT| Convergence limit for maximum gradient                        0.0010000000
 OPT| Maximum gradient is converged                                           NO
 OPT|
 OPT| RMS gradient                                                  0.0010498680
 OPT| Convergence limit for RMS gradient                            0.0005000000
 OPT| RMS gradient is converged                                               NO
 OPT| **************************************************************************
 OPT| Estimated peak process memory after this step [MiB]                  11015

 --------------------------
 OPTIMIZATION STEP:     95
 --------------------------

 Number of electrons:                                                       2432
 Number of occupied orbitals:                                               1216
 Number of molecular orbitals:                                              1216

 Number of orbital functions:                                               4983
 Number of independent orbital functions:                                   4983

 Extrapolation method: ASPC


 SCF WAVEFUNCTION OPTIMIZATION

  ----------------------------------- OT ---------------------------------------
  Minimizer      : DIIS                : direct inversion
                                         in the iterative subspace
                                         using   7 DIIS vectors
                                         safer DIIS on
  Preconditioner : FULL_SINGLE_INVERSE : inversion of 
                                         H + eS - 2*(Sc)(c^T*H*c+const)(Sc)^T
  Precond_solver : DEFAULT
  stepsize       :    0.08000000                  energy_gap     :    0.08000000
  eps_taylor     :   0.10000E-15                  max_taylor     :             4
  ----------------------------------- OT ---------------------------------------

  Step     Update method      Time    Convergence         Total energy    Change
  ------------------------------------------------------------------------------
     1 OT DIIS     0.80E-01   21.7     0.00010069     -6922.6840845850 -6.92E+03
     2 OT DIIS     0.80E-01   24.7     0.00005971     -6922.6871729412 -3.09E-03
     3 OT DIIS     0.80E-01   24.8     0.00004575     -6922.6880403199 -8.67E-04
     4 OT DIIS     0.80E-01   20.8     0.00003220     -6922.6885786765 -5.38E-04
     5 OT DIIS     0.80E-01   24.9     0.00001935     -6922.6887423166 -1.64E-04
     6 OT DIIS     0.80E-01   23.6     0.00001121     -6922.6887862907 -4.40E-05
     7 OT DIIS     0.80E-01   26.4     0.00000681     -6922.6888007709 -1.45E-05
     8 OT DIIS     0.80E-01   22.8     0.00000298     -6922.6888068513 -6.08E-06
     9 OT DIIS     0.80E-01   24.3     0.00000274     -6922.6888077705 -9.19E-07
    10 OT DIIS     0.80E-01   23.8     0.00000123     -6922.6888085192 -7.49E-07
    11 OT DIIS     0.80E-01   25.3     0.00000065     -6922.6888087045 -1.85E-07

  *** SCF run converged in    11 steps ***


  Electronic density on regular grids:      -2431.9999998847        0.0000001153
  Core density on regular grids:             2431.9999999988       -0.0000000012
  Total charge density on r-space grids:        0.0000001141
  Total charge density g-space grids:           0.0000001141

  Overlap energy of the core charge distribution:               0.00000809926212
  Self energy of the core charge distribution:             -16017.19408509233290
  Core Hamiltonian energy:                                   4266.20629270129757
  Hartree energy:                                            6151.05486203205783
  Exchange-correlation energy:                              -1320.78112598633038
  Dispersion energy:                                           -1.97476045846830

  Total energy:                                             -6922.68880870451449

  outer SCF iter =    1 RMS gradient =   0.65E-06 energy =      -6922.6888087045
  outer SCF loop converged in   1 iterations or   11 steps


 ENERGY| Total FORCE_EVAL ( QS ) energy [hartree]          -6922.688808771404183

 OPT| **************************************************************************
 OPT| Step number                                                             95
 OPT| Optimization method                                                  LBFGS
 OPT| Total energy [hartree]                                    -6922.6888087714
 OPT| Effective energy change [hartree]                            -0.0015858183
 OPT| Decrease in energy                                                     YES
 OPT| Used time [s]                                                      307.327
 OPT|
 OPT| Maximum step size                                             0.0535461229
 OPT| Convergence limit for maximum step size                       0.0030000000
 OPT| Maximum step size is converged                                          NO
 OPT|
 OPT| RMS step size                                                 0.0060853270
 OPT| Convergence limit for RMS step size                           0.0015000000
 OPT| RMS step size is converged                                              NO
 OPT|
 OPT| Maximum gradient                                              0.0112076370
 OPT| Convergence limit for maximum gradient                        0.0010000000
 OPT| Maximum gradient is converged                                           NO
 OPT|
 OPT| RMS gradient                                                  0.0010256999
 OPT| Convergence limit for RMS gradient                            0.0005000000
 OPT| RMS gradient is converged                                               NO
 OPT| **************************************************************************
 OPT| Estimated peak process memory after this step [MiB]                  11015

 --------------------------
 OPTIMIZATION STEP:     96
 --------------------------

 Number of electrons:                                                       2432
 Number of occupied orbitals:                                               1216
 Number of molecular orbitals:                                              1216

 Number of orbital functions:                                               4983
 Number of independent orbital functions:                                   4983

 Extrapolation method: ASPC


 SCF WAVEFUNCTION OPTIMIZATION

  ----------------------------------- OT ---------------------------------------
  Minimizer      : DIIS                : direct inversion
                                         in the iterative subspace
                                         using   7 DIIS vectors
                                         safer DIIS on
  Preconditioner : FULL_SINGLE_INVERSE : inversion of 
                                         H + eS - 2*(Sc)(c^T*H*c+const)(Sc)^T
  Precond_solver : DEFAULT
  stepsize       :    0.08000000                  energy_gap     :    0.08000000
  eps_taylor     :   0.10000E-15                  max_taylor     :             4
  ----------------------------------- OT ---------------------------------------

  Step     Update method      Time    Convergence         Total energy    Change
  ------------------------------------------------------------------------------
     1 OT DIIS     0.80E-01   23.5     0.00011750     -6922.6829949372 -6.92E+03
     2 OT DIIS     0.80E-01   24.6     0.00006902     -6922.6874386171 -4.44E-03
     3 OT DIIS     0.80E-01   20.9     0.00005952     -6922.6886881470 -1.25E-03
     4 OT DIIS     0.80E-01   24.9     0.00003889     -6922.6894456197 -7.57E-04
     5 OT DIIS     0.80E-01   23.1     0.00002010     -6922.6896883095 -2.43E-04
     6 OT DIIS     0.80E-01   26.6     0.00001474     -6922.6897464272 -5.81E-05
     7 OT DIIS     0.80E-01   22.8     0.00000773     -6922.6897694382 -2.30E-05
     8 OT DIIS     0.80E-01   24.5     0.00000291     -6922.6897774781 -8.04E-06
     9 OT DIIS     0.80E-01   23.8     0.00000251     -6922.6897789548 -1.48E-06
    10 OT DIIS     0.80E-01   25.5     0.00000145     -6922.6897795231 -5.68E-07
    11 OT DIIS     0.80E-01   23.5     0.00000072     -6922.6897797835 -2.60E-07

  *** SCF run converged in    11 steps ***


  Electronic density on regular grids:      -2431.9999998843        0.0000001157
  Core density on regular grids:             2431.9999999988       -0.0000000012
  Total charge density on r-space grids:        0.0000001145
  Total charge density g-space grids:           0.0000001145

  Overlap energy of the core charge distribution:               0.00000813533319
  Self energy of the core charge distribution:             -16017.19408509233290
  Core Hamiltonian energy:                                   4266.26574766518297
  Hartree energy:                                            6151.00968764930712
  Exchange-correlation energy:                              -1320.79622261436407
  Dispersion energy:                                           -1.97491552657884

  Total energy:                                             -6922.68977978345083

  outer SCF iter =    1 RMS gradient =   0.72E-06 energy =      -6922.6897797835
  outer SCF loop converged in   1 iterations or   11 steps


 ENERGY| Total FORCE_EVAL ( QS ) energy [hartree]          -6922.689779871232531

 OPT| **************************************************************************
 OPT| Step number                                                             96
 OPT| Optimization method                                                  LBFGS
 OPT| Total energy [hartree]                                    -6922.6897798712
 OPT| Effective energy change [hartree]                            -0.0009710998
 OPT| Decrease in energy                                                     YES
 OPT| Used time [s]                                                      303.307
 OPT|
 OPT| Maximum step size                                             0.0268491210
 OPT| Convergence limit for maximum step size                       0.0030000000
 OPT| Maximum step size is converged                                          NO
 OPT|
 OPT| RMS step size                                                 0.0042979464
 OPT| Convergence limit for RMS step size                           0.0015000000
 OPT| RMS step size is converged                                              NO
 OPT|
 OPT| Maximum gradient                                              0.0095607210
 OPT| Convergence limit for maximum gradient                        0.0010000000
 OPT| Maximum gradient is converged                                           NO
 OPT|
 OPT| RMS gradient                                                  0.0010363527
 OPT| Convergence limit for RMS gradient                            0.0005000000
 OPT| RMS gradient is converged                                               NO
 OPT| **************************************************************************
 OPT| Estimated peak process memory after this step [MiB]                  11015

 --------------------------
 OPTIMIZATION STEP:     97
 --------------------------

 Number of electrons:                                                       2432
 Number of occupied orbitals:                                               1216
 Number of molecular orbitals:                                              1216

 Number of orbital functions:                                               4983
 Number of independent orbital functions:                                   4983

 Extrapolation method: ASPC


 SCF WAVEFUNCTION OPTIMIZATION

  ----------------------------------- OT ---------------------------------------
  Minimizer      : DIIS                : direct inversion
                                         in the iterative subspace
                                         using   7 DIIS vectors
                                         safer DIIS on
  Preconditioner : FULL_SINGLE_INVERSE : inversion of 
                                         H + eS - 2*(Sc)(c^T*H*c+const)(Sc)^T
  Precond_solver : DEFAULT
  stepsize       :    0.08000000                  energy_gap     :    0.08000000
  eps_taylor     :   0.10000E-15                  max_taylor     :             4
  ----------------------------------- OT ---------------------------------------

  Step     Update method      Time    Convergence         Total energy    Change
  ------------------------------------------------------------------------------
     1 OT DIIS     0.80E-01   18.1     0.00013910     -6922.6813952284 -6.92E+03
     2 OT DIIS     0.80E-01   24.8     0.00008226     -6922.6876915903 -6.30E-03
     3 OT DIIS     0.80E-01   26.1     0.00007250     -6922.6894791308 -1.79E-03
     4 OT DIIS     0.80E-01   21.5     0.00004502     -6922.6905934646 -1.11E-03
     5 OT DIIS     0.80E-01   24.8     0.00002426     -6922.6909257823 -3.32E-04
     6 OT DIIS     0.80E-01   23.7     0.00001695     -6922.6910130669 -8.73E-05
     7 OT DIIS     0.80E-01   26.2     0.00000946     -6922.6910434544 -3.04E-05
     8 OT DIIS     0.80E-01   23.5     0.00000361     -6922.6910547187 -1.13E-05
     9 OT DIIS     0.80E-01   24.0     0.00000275     -6922.6910570680 -2.35E-06
    10 OT DIIS     0.80E-01   23.9     0.00000173     -6922.6910578219 -7.54E-07
    11 OT DIIS     0.80E-01   25.1     0.00000093     -6922.6910581814 -3.60E-07

  *** SCF run converged in    11 steps ***


  Electronic density on regular grids:      -2431.9999998858        0.0000001142
  Core density on regular grids:             2431.9999999988       -0.0000000012
  Total charge density on r-space grids:        0.0000001130
  Total charge density g-space grids:           0.0000001130

  Overlap energy of the core charge distribution:               0.00000809475052
  Self energy of the core charge distribution:             -16017.19408509233290
  Core Hamiltonian energy:                                   4266.17357824347982
  Hartree energy:                                            6151.07527866144392
  Exchange-correlation energy:                              -1320.77121047607602
  Dispersion energy:                                           -1.97462761268780

  Total energy:                                             -6922.69105818142361

  outer SCF iter =    1 RMS gradient =   0.93E-06 energy =      -6922.6910581814
  outer SCF loop converged in   1 iterations or   11 steps


 ENERGY| Total FORCE_EVAL ( QS ) energy [hartree]          -6922.691058314414477

 OPT| **************************************************************************
 OPT| Step number                                                             97
 OPT| Optimization method                                                  LBFGS
 OPT| Total energy [hartree]                                    -6922.6910583144
 OPT| Effective energy change [hartree]                            -0.0012784432
 OPT| Decrease in energy                                                     YES
 OPT| Used time [s]                                                      310.227
 OPT|
 OPT| Maximum step size                                             0.0444081812
 OPT| Convergence limit for maximum step size                       0.0030000000
 OPT| Maximum step size is converged                                          NO
 OPT|
 OPT| RMS step size                                                 0.0053393223
 OPT| Convergence limit for RMS step size                           0.0015000000
 OPT| RMS step size is converged                                              NO
 OPT|
 OPT| Maximum gradient                                              0.0352944230
 OPT| Convergence limit for maximum gradient                        0.0010000000
 OPT| Maximum gradient is converged                                           NO
 OPT|
 OPT| RMS gradient                                                  0.0016876467
 OPT| Convergence limit for RMS gradient                            0.0005000000
 OPT| RMS gradient is converged                                               NO
 OPT| **************************************************************************
 OPT| Estimated peak process memory after this step [MiB]                  11015

 --------------------------
 OPTIMIZATION STEP:     98
 --------------------------

 Number of electrons:                                                       2432
 Number of occupied orbitals:                                               1216
 Number of molecular orbitals:                                              1216

 Number of orbital functions:                                               4983
 Number of independent orbital functions:                                   4983

 Extrapolation method: ASPC


 SCF WAVEFUNCTION OPTIMIZATION

  ----------------------------------- OT ---------------------------------------
  Minimizer      : DIIS                : direct inversion
                                         in the iterative subspace
                                         using   7 DIIS vectors
                                         safer DIIS on
  Preconditioner : FULL_SINGLE_INVERSE : inversion of 
                                         H + eS - 2*(Sc)(c^T*H*c+const)(Sc)^T
  Precond_solver : DEFAULT
  stepsize       :    0.08000000                  energy_gap     :    0.08000000
  eps_taylor     :   0.10000E-15                  max_taylor     :             4
  ----------------------------------- OT ---------------------------------------

  Step     Update method      Time    Convergence         Total energy    Change
  ------------------------------------------------------------------------------
     1 OT DIIS     0.80E-01   22.4     0.00009821     -6922.6867314235 -6.92E+03
     2 OT DIIS     0.80E-01   25.6     0.00005958     -6922.6899033102 -3.17E-03
     3 OT DIIS     0.80E-01   22.0     0.00005071     -6922.6908526256 -9.49E-04
     4 OT DIIS     0.80E-01   26.0     0.00003274     -6922.6914621898 -6.10E-04
