0.413343499700 2.617571699800 3.349089823100 0.478887513600 36.789097183600 5.149731547000 0.445874462100 27.489676315000 7.007395274100 0.517723654500 18.175492296000 8.637842742600 0.469386873400 15.982812469200 4.129313555500 0.520151202200 6.914393020700 5.950764059100 0.396776756000 40.652179103400 7.706597930700 0.436107394500 31.442193722400 9.489678043800 0.439832304200 30.356768625400 2.855199996500 0.459577633000 21.153750284300 4.625561523300 0.455676534500 11.940712207200 6.377004683200 0.449928463200 2.613951989200 8.134374519200 3.958657484000 18.808819040000 3.048066176000 3.965729381900 9.694440847000 4.800469786500 3.902108970200 0.208232585000 6.351698187200 3.855551289900 34.334321822500 8.268808212700 3.939340155100 5.324985763700 2.127167456600 3.857021116700 39.430084940800 3.914776038700 3.935417788800 30.100514012800 5.698068663400 3.897803460800 20.963312808700 7.494213789300 3.902470015300 34.467533470500 3.469569533500 3.914065822900 25.115351738400 5.378030839600 3.887309586200 15.759158098900 7.163640579100 3.857418227200 6.679547323000 8.781156971500 6.362570290600 18.792551424500 3.099627007300 6.400815506600 9.691300510700 4.698893219800 6.419940055200 0.207320659200 6.341356238800 6.462763708500 34.334357015600 8.268658247100 6.379768876600 5.325874989400 2.128039579800 6.461410242200 39.430169534800 3.915684473000 6.413736814400 30.153876330600 5.721184888800 6.461201947000 21.039422284200 7.533089252100 6.416275607700 34.467123735800 3.469710028600 6.411161091900 25.145209076000 5.332237322600 6.412859090100 15.810786098000 7.122109209000 6.420645268400 6.683513688900 8.779767389100 3.025267551800 2.618401146100 3.348323138300 2.960606841200 36.789228338600 5.149488351600 3.036085354500 27.491967829100 7.077109873300 2.929055443000 18.185172877200 8.649250961800 3.012842090800 15.960040740800 4.109096627300 2.941022878800 6.881614543700 5.933908646300 3.037890960900 40.650681378900 7.706758316600 3.002979774300 31.442485697600 9.490417341300 3.017866097300 30.370173877100 2.840785464300 2.950986145100 21.109960509800 4.652806062700 2.956489638300 11.922976718700 6.388687775000 2.989013179200 2.615036645400 8.133689118500 1.720349471400 0.501240033100 3.688479097300 1.720314549000 34.574551129900 5.479739333800 1.718322178700 25.279470953100 7.306629610000 1.721914276200 15.983855038500 9.076267581500 1.719795054200 2.388378591100 5.411743951800 1.720167543400 36.385731326600 7.331063707900 1.708603473700 27.182750339100 9.131098180900 1.718738841300 17.740429376500 10.882698752800 1.719871243500 2.060408122800 3.885975969300 1.719852585800 36.065404327100 5.776910252600 1.723169635600 26.817343661000 7.592949536900 1.720389730700 17.584727162100 9.406229159500 1.719959608600 38.581492468200 4.118310729000 1.706677549200 29.702033229000 5.780394054700 1.696845364200 20.067299920500 7.649126822400 1.802688525900 10.817693315200 9.249197224900 1.726142223100 16.917504631800 2.134013660600 1.717545300200 7.646671782600 3.818968038300 1.720476610500 41.561409816500 5.678312336700 1.720778818700 32.343734078500 7.467957710400 1.720715400600 14.351962279700 2.791977209300 1.706622107400 5.179161545600 4.521861433000 1.720219610500 39.120984721900 6.314592241700 1.720711989000 29.900662043900 8.017716690100 1.727104462500 15.897798123600 3.204908032600 1.722822372800 6.656294378300 4.960671601800 1.717964598600 40.591267393400 6.894850767000 1.720181148100 31.339302601200 8.683701344000 1.719598922900 34.486783808700 2.898528898100 1.755785832800 25.328937766300 4.696107959600 1.697290613100 15.989795417000 6.367139929500 1.740576515100 6.689589256100 8.194036575800 1.722333134800 31.809145262000 4.513343937700 1.723748124900 22.549564427400 6.373276522100 1.724272668200 13.201645256000 8.205127914400 1.718996096300 4.026751922400 9.935199472500 1.714568693800 32.374821786800 2.023854781100 1.733145495500 23.216959208200 3.903919254700 1.731863233000 13.905904805600 5.658443100800 1.717948531700 4.490198808200 7.363225643600 1.733386438500 31.202918415000 3.004648602200 1.719535985300 21.984636749300 4.859533987200 1.706999575800 12.735290151900 6.673882405400 1.720462304300 3.486081708600 8.555189274900 1.728850676500 19.243413558800 3.035880292600 1.724859576800 9.586314124400 5.024104412800 1.727824069800 1.027728927300 7.059815168100 1.719822113200 34.226979657100 8.809788573900 5.166629876700 20.976096910400 2.698136502600 5.153501885700 11.850792695000 4.325653380600 5.158000334500 2.436147282900 6.124721929300 5.158702985900 36.509531425000 7.933140329000 5.172708951200 19.182225305400 0.820278674400 5.139164758300 10.083764126300 2.535355519400 5.156409594400 0.625485021900 4.287376028900 5.158697910200 34.614837217700 6.193005925300 5.151570925000 19.512936997200 2.285528898600 5.153415632800 10.246130291800 4.029136434500 5.158557151600 0.975707742000 5.796973874500 5.159064401300 34.931093836200 7.725396079900 5.173848896100 25.941931913900 2.413641815000 5.111006680400 16.962521064000 3.691027864400 5.146406229600 7.498710564900 5.722230843300 5.133472382700 41.643918719600 7.475473655300 5.157005869900 4.644806689800 4.250388821700 5.158520824800 38.580298499000 5.980137108800 5.160300954300 29.287353975900 7.758241918300 5.155250323500 20.073449522400 9.509626368200 5.157613812300 7.109589803000 3.570785984300 5.158421532900 41.029191475900 5.304991840900 5.145109206400 31.796855085300 7.110660642100 5.143140582600 22.629989360400 8.819107395800 5.159005995600 5.717296522300 2.971660309700 5.159088962300 39.571467274000 4.754496483800 5.162301708100 30.367654090300 6.596170130600 5.161721045600 21.083901301100 8.417452878700 5.171674757900 30.313125491800 3.379942249900 5.176893620700 20.956111655300 4.931310602100 5.101241968300 11.754082963000 6.699372843800 5.155733005500 2.604288946300 8.775656876400 5.159301551500 32.988178839800 1.704438957600 5.159064595200 23.981787910400 3.451090195300 5.160959253200 14.484108271400 5.283369100300 5.152991868600 5.237693271000 7.113365640200 5.159460511900 32.542618368600 4.256480554600 5.170646023400 23.101419844200 5.897223574600 5.171566841900 13.809112055800 7.840736350300 5.161137725700 4.638355310700 9.582166315600 5.158866778100 33.560810206300 3.056643880200 5.155269987700 24.290503189800 4.929305213700 5.154933970700 15.019602407200 6.749492116400 5.151926949100 5.831881145500 8.599398112300 5.158482713500 2.896022622800 2.803867708600 5.159314380400 36.121910073600 4.543381588200 5.177166451400 27.078006433400 6.199407937800 5.161953508300 18.007900591600 8.329124361200 0.034076618800 42.330885292300 4.314072148100 -0.026882855200 32.844736261600 5.825589745700 -0.031568805900 23.455761828800 7.435588495100 0.062830865300 14.488578070600 9.236544865300 3.444879485200 13.451625243300 4.092120069500 3.417406620500 4.243913665400 5.786928299900 3.461245967500 38.018119092800 7.415758868600 3.398985259800 28.947874038300 9.103955725400 6.867055247000 13.442924573700 4.099177738900 6.895474778500 4.236752938700 5.774605116300 6.856931838700 38.018443994400 7.415392973700 6.919816008100 28.951406486800 9.105105035700 3.405764151300 42.330927397000 4.313155547000 3.465772285800 32.849656130600 5.824790283900 3.471473092600 23.462010657300 7.429315161700 3.374498365800 14.492815020700 9.238526091700 1.322939089600 27.514778543300 3.660076505200 1.421779784600 19.203730062400 5.621923446800 0.539765804600 9.454152681500 7.995399464800 0.969984099300 -0.050565514600 8.973654096300 0.531855269400 28.318162097600 3.712804011000 0.281222903300 18.082335096800 5.909094062700 0.666685125500 9.006489220200 7.200970720700 0.734497699100 0.089329172300 9.853190237500 3.907802234600 27.268722117100 3.618973701600 4.340083841100 17.924930508900 5.733504813000 4.823873340500 9.586326857000 8.195781659700 4.433126321100 0.090742847000 9.032363526400 4.150808126200 27.856012498400 4.235940597100 4.489084501400 18.808826333100 5.771085025100 3.858027098700 8.804743881200 7.995008430400 4.083599293400 -0.073041067600 10.025801342000 12.632950220000 27.892304143300 4.049584649700 13.155252315800 17.994772604100 5.736671401500 12.364528513700 9.383820446500 6.842590173800 12.902205369200 0.103420724700 9.064160686600 13.580814415800 27.400712843300 4.173266350900 12.766051251000 18.800400315600 5.772691364600 13.400936182800 9.120128772700 8.117571086800 13.031323448700 -0.167098544100 9.926665514000 1.981677739500 27.914726727100 4.903724120500 2.151713196300 18.049016295400 5.731517212500 2.544549123400 9.132145931100 7.773852414800 2.419266447900 -0.057953973300 8.996978118300 2.996132480800 27.660380279600 3.507383191100 2.967354676200 18.601600436300 5.844114776500 3.078169490600 9.448628600100 7.076235289100 2.709994538000 0.029616541100 9.938432135200 7.292474447300 2.617069511800 3.349247843100 7.357852247100 36.788950829100 5.149735081500 7.324072820500 27.489737692400 7.010004989200 7.393503449700 18.183777542500 8.668347825100 7.303611652200 15.969963565200 4.114306984700 7.367135375400 6.889169694400 5.917569469000 7.277374074900 40.655952684700 7.708369769900 7.315014355100 31.441942383200 9.489477817000 7.320077878000 30.353552482900 2.856748455200 7.383488052000 21.095056986500 4.655500953800 7.339947545000 11.926602479900 6.391736574300 7.326462965100 2.617283805900 8.131352685900 10.825154301100 18.799759208300 3.082013779900 10.851920791900 9.692776275700 4.803154184300 10.780936704200 0.208154222800 6.350766438300 10.734562980300 34.334360331400 8.268789148700 10.817501350400 5.329534654100 2.127972073600 10.736221034600 39.430250055600 3.914830118500 10.814183419800 30.100639957200 5.697071333200 10.741398376100 21.041496288100 7.537362692900 10.781208873900 34.467512861400 3.469538994400 10.790304359900 25.113471600500 5.376420363400 10.788006884300 15.815615566200 7.124948621000 10.762442014300 6.684854841900 8.777540176000 13.244921555600 18.822271994300 3.022650542700 13.278295885400 9.690059206300 4.698336381900 13.297795774100 0.207151293000 6.344209386400 13.341682029200 34.334384099500 8.268641949800 13.259195483000 5.330215848200 2.128430693000 13.340469070000 39.430371305000 3.915805420000 13.291858172000 30.155022104300 5.722105738000 13.299325476700 20.972785272700 7.501484100700 13.295062097700 34.467226827700 3.469661446900 13.288243547300 25.149057049300 5.328060952300 13.305466911800 15.766411674500 7.163225278800 13.338013111300 6.698053999100 8.776171899800 9.904964141200 2.618209746600 3.348978391400 9.839659692000 36.789170478000 5.149492486200 9.915421576200 27.493137569300 7.077191997000 9.797301807600 18.170903400800 8.645068796300 9.853889275600 16.010573762200 4.159179656100 9.817158580800 6.917246129000 5.930041428000 9.920600263800 40.645316325100 7.703521295900 9.881872048100 31.442858222500 9.490511872600 9.896551422700 30.368835154000 2.840906122600 9.835026717000 21.129132874600 4.629991133200 9.858113123600 11.959721444200 6.358134077600 9.867780190000 2.605979447000 8.137130221500 8.599882163500 0.501465117000 3.688170232200 8.599378332300 34.574424408000 5.479665512700 8.597319623800 25.279178492800 7.306150659300 8.599387303500 15.981981477600 9.072723230800 8.599541789700 2.387675563200 5.411887253000 8.599068760300 36.385678249500 7.331065820600 8.587223170100 27.182794139800 9.130859265100 8.604322863700 17.737432874400 10.892982216000 8.599028614100 2.059473421600 3.885825131500 8.598800779500 36.065586493600 5.777066811800 8.601342156800 26.816709168100 7.593893865100 8.600013769100 17.582599404500 9.417986100000 8.598731453700 38.581514191100 4.118125078300 8.586883328500 29.699630380800 5.780529625500 8.624294193800 20.066941839600 7.663037170500 8.561071655900 10.862221115300 9.273906186000 8.595454114000 16.919912735500 2.135524823000 8.605264764900 7.652549091000 3.809010503700 8.599594635400 41.561445751400 5.678047184700 8.599513327300 32.343681772800 7.467840466700 8.604693238200 14.362736698600 2.796218555600 8.612404816800 5.178514612400 4.520217115600 8.597672405200 39.120824204300 6.314497147000 8.600103737200 29.900483550100 8.017250643900 8.587786564600 15.904011329600 3.208677926400 8.599018858700 6.660646789500 4.962714950600 8.598037937000 40.591351789500 6.895221784000 8.599122434000 31.339645615900 8.683942685500 8.598572280600 34.488087653700 2.898862025700 8.630401971000 25.336006614600 4.697706009100 8.636164979300 16.004101364100 6.365405801000 8.591637543200 6.616567091600 8.339616418600 8.601478443700 31.808363462600 4.512642057600 8.595178135800 22.546365786400 6.364865924300 8.597114272900 13.206324018700 8.205305604000 8.600468825700 4.005795503500 9.941437625700 8.593034487700 32.373819315900 2.023501970900 8.582456889900 23.214270304000 3.901871447200 8.587440979600 13.911903023700 5.660519213500 8.602047558600 4.487894701800 7.369736411000 8.613152559200 31.204313398800 3.005772428500 8.600289243200 21.993283471900 4.863235147600 8.600854207900 12.727011776700 6.667707049400 8.597808492200 3.478427839400 8.555845160700 8.589751375600 19.252606998300 3.001711529200 8.597223053800 9.609541746800 4.985754995400 8.612296768700 1.024099408600 7.060340144300 8.598840481700 34.226871783500 8.809840622600 12.028296295900 20.980989488700 2.697665323300 12.031583483200 11.840700174700 4.328270882200 12.037803272600 2.435824477000 6.124909683500 12.037659417100 36.509553751800 7.933114769500 12.023251505400 19.183242666000 0.816209341400 12.018469054100 10.084483073600 2.530857297000 12.035978637300 0.625689411400 4.287590835700 12.037616571500 34.614815244100 6.193008225600 12.050642690000 19.527893194600 2.276867234600 12.034132928700 10.241091925200 4.025103711800 12.037933032400 0.975687441900 5.796636744900 12.038067446800 34.931135529200 7.725431471100 12.056467549900 25.941760271600 2.415457937200 12.106208998300 16.988892938100 3.565024130000 12.064230646000 7.485548010400 5.716071801200 12.014380489600 41.642471956700 7.472308693000 12.039789051200 4.645341686000 4.250563140600 12.037692063200 38.580286158300 5.980004357100 12.039226714800 29.287226668000 7.757814720900 12.040918733300 20.074292668100 9.510510069000 12.038708577000 7.109518721400 3.568600863200 12.037694587400 41.029302494400 5.304859744200 12.023655645800 31.797125085200 7.110621052300 12.052617251200 22.634363108000 8.821129784500 12.037952661300 5.716842385400 2.972559277100 12.038044502300 39.571149867900 4.754368680400 12.042639072300 30.368437682700 6.596420712600 12.033570182700 21.086555734100 8.418698907400 12.053845890600 30.315610547200 3.379632938100 12.018155866000 20.973795902300 4.939697968100 12.009017388200 11.646102450900 6.708063347700 12.036417847800 2.607517735300 8.775122940400 12.038070454900 32.988133562300 1.704464255700 12.035818487900 23.981848856700 3.450795639100 12.034184400500 14.459550433300 5.302142303800 12.049557179200 5.239779812700 7.113480856800 12.038056123800 32.542981572600 4.256775939200 12.050160299900 23.106604302100 5.901111917100 12.025030237700 13.798336583300 7.841921698500 12.049696932000 4.644898063600 9.581630898100 12.038314713600 33.561061648500 3.056577006300 12.036406555300 24.291294857200 4.928410518500 12.043668916600 15.011047019000 6.753871414900 12.053105367300 5.841632830300 8.597385654100 12.038908409400 2.897790106400 2.802844841400 12.038395673800 36.121836638200 4.543388241300 12.055309057100 27.079041851500 6.200693457900 12.038492720500 18.015769910100 8.322068187300 6.912515346800 42.330967770300 4.314597762700 6.851795338200 32.844848461100 5.825788633000 6.844555611100 23.453673366900 7.438212276300 6.943924954900 14.490584463600 9.253698890600 10.318280477200 13.407793771900 4.108543084200 10.301916392100 4.232181395600 5.773844003200 10.340207540200 38.018571068800 7.415627030900 10.278514232500 28.946382173500 9.104241594900 13.763713150900 13.414037422300 4.103874388700 13.780795517400 4.238419056800 5.786965949000 13.735919601600 38.018228782500 7.415430741500 13.798303647500 28.950658634500 9.105732723400 10.284308808900 42.330583636800 4.313071056400 10.345044681700 32.849799764100 5.825133845100 10.355466986100 23.455757990400 7.436385795800 10.256052979800 14.486798001900 9.240836606500 8.187717266900 27.550011486200 3.660348739800 7.772420093900 17.975873498200 5.841773596900 7.595826256500 9.106003200400 8.003579480500 7.875989276000 0.075230425400 8.966840322000 7.497617584600 28.320193120800 3.690360883200 7.554619437600 18.947573494200 5.807126216900 7.108791081600 9.304789452600 7.070388867100 7.591692155700 0.050784907600 9.858114178600 10.813617036700 27.269804372900 3.649559056400 11.261200627900 18.853943934100 6.318719670400 11.763421760700 9.689346282800 8.120124313400 11.310280624500 0.115083396100 9.036734226800 11.049476625000 27.889837745400 4.257631291700 11.045796327800 18.462845256300 5.354671964200 10.828621559500 9.103586862100 8.039701111200 10.964516225300 -0.097657538000 10.023957203300 5.712721913000 27.858494766600 4.062011551200 5.794952916500 18.847773878900 6.295695906300 5.507489596400 9.528503304400 6.876056336300 6.027700822300 0.125034676700 9.049382727200 6.678464809200 27.455492273000 4.213731135400 6.104652197500 18.432048150500 5.432713457800 6.774843461800 8.750015794700 8.163587617800 6.165924341900 -0.172108987600 9.935610906000 8.853861030100 27.899703609400 4.917916283600 8.969320433900 18.883899523700 5.626335723500 9.545214714600 9.640025159000 7.818728177100 9.278827447900 -0.221525940400 8.999502707000 9.887072549700 27.668763929200 3.523847756600 9.954299457100 18.465776972000 6.095778716400 9.632396455700 9.062165939300 7.177331056800 9.602599421100 0.083473385500 9.913931151500 7.145929593800 21.674075600800 17.825868299200 7.286994714800 22.816033835300 17.862689454600 7.448895588100 24.034151288200 17.906505240500