-163714.046194670198
-176547.610216143075
-179900.565911108977
-181403.978431588097
-182147.796459587204
-182519.454974884895
-182692.553745376354
-182969.134585845110
