-0.872581063006 -3.374630256629 -2.173479151732 -69.081673001659 32.096398277614 -78.329693238884 -56.006909406141 1.290566366928 3.999608922529 -70.703065296580 59.493057157844 105.024385876449 -25.093662452925 15.527285110631 0.492557586177 -37.314320934282 14.842523149082 12.097559708246 -8.469295760217 -8.035205064761 -3.216757310387 0.339310054905 -0.432376283727 1.634434988115 -5.547239346979 -2.696810788410 -4.514124759960 -0.351715628683 -0.152405752028 -0.983676897126 -10.584369213489 -0.468323908437 11.831455137042 -11.698682844597 -3.782621167517 12.079714708170 13.628327808328 -5.512768564046 -33.199664905967 -112.096086406934 -6.526794765397 13.911231454756 -45.017940052894 -22.365840558282 -0.139580574178 -1.153035476360 47.560526290750 78.219382105513 1.824302744740 -0.610650421019 -1.911824646247 75.539063916804 5.110476760896 -27.845800300616 22.558715477413 -57.426742623174 -21.449706032565 1.048868765831 0.922557141945 -0.092507785169 -4.237749144998 51.784744747133 -76.351608173369 -8.164009630479 -34.564486795214 -18.266350954548 38.085475568735 30.808179328066 11.458092360613 -32.852097495467 37.646722434421 81.594001049287 -14.959066122811 -7.009914859530 -36.216610974540 108.139193795858 -6.790495869167 13.681011259120 48.378354678969 -20.719662312617 2.421109316753 -5.984377828374 44.862287511526 72.948159961685 -1.066748732914 -2.723714814114 0.125526923137 -83.359962373151 8.471982049022 -28.321375234788 -234.962978389421 -13.363025421377 48.005314318903 -1.206268629052 1.425386800321 1.094953736924 3.688911648631 50.810696117921 -74.830889487934 7.758482865065 -33.522030361197 -17.991511316742 -46.954931173185 8.134158606089 24.383372520198 37.694143865047 34.303483293104 97.107275189192 -10.895953518051 -56.046383556239 -74.302773027876 55.572842879057 31.171251520351 -22.773658691023 17.266338809247 -1.985303181126 24.966807812005 69.237415017425 59.489440129618 104.456674938656 -235.267600146047 -24.868795808734 -25.137080675599 -234.760087479986 3.924720908781 -37.910755210526 5.698643911353 -3.226848891129 -1.857713718862 -2.140345856774 5.356520040916 4.242479975206 5.042530726257 1.112419756363 -3.037041812543 0.540270579926 -0.022359343380 -1.020685359089 5.341139700534 29.474438479064 17.339126745760 0.985002558026 -52.773805534724 78.223985923214 -9.190085050681 433.093424107145 -155.576475274825 -18.377658647587 -9.408710084322 -35.103160205724 -21.209144859159 117.201605566305 45.483185836372 -0.306444154698 -38.695682731532 69.715925637429 -39.056527319855 98.363536866466 208.536679119282 6.811796432178 187.709381163465 369.760967077539 -12.947731034245 280.070556876118 397.930838503362 -0.149867558777 1.310060986929 -0.818715418883 -67.531553749144 17.072087835590 -755.655678788228 -228.960430573504 209.067839251513 -477.139974565936 -150.318764279227 -85.971454181425 -186.603084232676 0.466623380666 0.338177740979 52.821419798104 -116.894800428694 -109.851766158165 -7.112850011542 -177.431536323099 -200.251831229778 460.596037128968 0.904752251081 17.444533242335 4.978462943947 1022.252649712571 -975.584248470013 5715.226498643886 0.356677858195 0.368641202193 -0.158531662926 -24.456783177948 -113.755770658621 245.812711696342 -1439.732467512854 575.257288175146 -190.575081047632 -85.886115146683 -23.770571628318 -27.552117046183 0.328338128367 -4.827573114469 -15.614221314789 -79.036615540411 167.774655113605 -112.910896834013 2012.661151071092 -17920.463968362616 -4614.567330095180 -1637.489227523566 -10190.324443982936 -14470.585339335574 -7.301724293824 107.857256370078 -159.468294802173 -49.334746512872 137.407532628476 -569.406525961123 -92.438964959449 -285.787050415533 44.774243161813 -40.754689676193 -13.459244851377 85.037463856998 -199.705114379473 24.829294404940 -187.631599115759 -114.865385341204 -209.681428957909 321.409891291145 -2198.766011005755 18068.540093894680 4626.720233317767 1474.722455461372 10198.324451156730 14603.504452067180 -12.903705002734 -31.943524070552 -4.496564123917 -0.768953255745 -5.617869099319 -1.714118623876 -0.799302045749 45.025900703160 218.582078731152 1.106008452991 74.814518244311 279.304890004706 0.195620857535 1.194539769682 1.280402281071 8.878468864437 -439.855648637834 147.941903651537 -12.748016465919 55.589861526509 12.284610564015 -20.295360321926 121.669320367706 -10.477876168628 -28.455645966279 32.232848790545 -362.612922774575 -0.655500234051 -0.314925710507 3.899440791968 -203.134478798945 -158.467022301997 49.155929872767 -27.125491806483 -339.305143068675 -216.601279608916 -0.287206645034 4.274219732135 -11.607530030906 -124.741233541088 -121.303480639749 1.994081442265 -134.740123949808 -211.222179109730 23.833680903290 -1067.174465980511 898.678966554830 -5451.134065741231 -0.146898962822 -0.618992108805 0.559536371727 0.269387870212 -43.387742243139 -17.235956594899 -2.280584633416 -50.389768443297 45.592345629652 -9.956823557980 -629.038554341646 164.222387839100 0.080840632280 0.279814722834 1.312128668263 -36.834404434952 -265.040144177346 -999.224877048038 -0.034157108321 -218.910048163295 -337.670581582275 64.190761269798 -419.574640214940 -431.589701957672 0.078298839484 2.567842186297 -7.115220054632 4.185372683950 -8.711267955155 181.730399052631 5.896828158951 -303.476029254251 545.229724627728 17.446995330925 28.100706688185 345.130916214788 147.575267909976 -2907.556202164966 -4130.287682738865 0.580915610501 128.460480609984 -185.996627795480 -134.803506790179 203.704387001681 -203.695568631330 -39.419751721460 439.640031280919 -435.884668437151 -579.732583617734 137.184220987606 203.263721994898 1.063124505598 127.809081800035 -322.725020437045 0.439454017094 131.274584620088 -162.748142361367 -0.193721840583 0.629664758910 0.687480132035 -923.110905160877 8648.689527154256 12516.804399279026 52.281896895039 -21.196217865616 -28.146427591040 -3.293820991810 -22.579237510322 22.330712601327 6.684985500016 -20.344199458953 -6.393062422952 -8.994446709644 31.321184385154 -169.234900419247 49.095075455454 155.214742113177 -229.167790574822 -3.568865803666 334.218798169825 234.058937305533 -0.202668766103 -9.802860745749 -2.667011700308 832.240733377747 -8715.717787417974 -12855.271902579545 1.143243686271 -166.369149113012 -21.676875356938 98.274668221012 444.059425793954 407.007304439072 -23.041861796801 -50.942671368320 227.549515485633 0.537919048780 -75.860102682693 -234.172976538796 0.520765161291 -23.024624605562 -300.579766664279 -0.255923001844 -49.960553588279 -34.672105983352 -3.675662238725 -59.353558858973 -23.827665549837 0.107147133559 -113.056867628517 -12.045075775076 -1.017008167044 -55.254590160784 -8.876457233157 10.628897124379 485.570449750533 -61.484823064410 -0.005765442205 -1.180431097028 1.087219343755 47.033912897725 285.291854363074 291.707926104340 -2.132167691162 28.345992521151 -96.256423035019 3.144396691255 -31.160151038645 485.922210630635 -6.846159742989 25.640159216781 434.051731413061 -150.018766394908 2907.417263852411 3741.268129120741 112.211467756159 127.635472672704 -100.134730899917 50.196219895082 -53.370701581135 -29.649358869115 -6.343078630703 -58.807741894849 733.596378543910 -51.447157845710 40.480500527540 -64.411270922212 -115.409303288376 -141.073412333084 -10.726936381346 -38.773101739442 -56.129447164496 -6.597531989859 -63.510870520701 29.747855782484 99.338575370477 -131.568466363701 82.959955252459 -245.887908242495 -304.755415435269 122.899391757572 57.502751637994 -37.409251213050 -111.965331916418 123.085982385838 -93.004729057768 -74.612012486162 179.659743981246 166.396129757596 67.253787681478 -192.804984091343 187.797980357285 61.224683453034 -108.629780888409 51.413936619017 -145.525516423240 101.660958945662 101.582424078888 -89.515944382445 175.593534739583 -22.808553191792 127.744442718556 -45.853593900804 37.874131385628 -164.807936577880 -32.451943307662 -13.987499122575 -129.191220070505 108.883404295395 29.327659843880 18.013052020808 162.326284975763 -70.153655472601 -9.720175603909 -81.262383735677 -33.324375246672 160.286721229036 -73.435662758629 -14.065831900624 17.767739962588 10.529356857261 -6.099874877250 -2.065724723556 3.382524058207 -1.171972681149 -2.504369871528 -2.323239238388 -145.958598217733 78.499167517769 -96.418196859300 -10.334451794906 -3.164989686617 -0.999127685741 -0.982302385263 0.500108402565 3.120718371844 -6.248505221084 -4.048385324634 -9.628879322650 -104.508706357632 106.130386616130 86.707799675742 -10.605542763993 3.597442589224 119.346761443271 -26.882019115617 16.501000010625 8.537539014407 -9.333426634875 1.735984315408 0.014870747693 -2.340754623011 10.122166587964 3.934457163037 19.381424089594 -26.312616391803 89.832532568394 -0.472505036744 -0.006895185028 3.091726610201 548.820765169552 -64.729951472086 -222.597901545777 14.272553239865 1.135893930166 4.355289192615 39.093593888754 167.026250630245 1.098268917615 25.205477681769 5.961081574925 -0.302133442781 7.007125212369 -6.810793701862 -2.127563359241 2.120960765777 7.538390245618 4.787559546883 1.544447398473 0.480373127288 1.703595611988 2.481077217623 -0.043568375111 5.201891827132 77.954093088299 -159.089817072692 118.463864599309 1457.909761102961 -613.486451912809 164.589330056184 85.102249491370 26.902831683207 41.891707692754 3.521174921406 -1.009347821652 0.933161400700 -15.771980104041 2.413558500365 -94.777150021749 61.271889939418 64.353960513789 -37.053691270602 3.832627585475 2.553119534158 -2.581109593927 0.400617500633 -0.043975123664 2.424284629420 4.213936099771 -54.178368968820 -81.503111002360 0.619823603636 -1.103163784218 44.704842396885 -108.209361778033 25.230213753108 -24.600189039726 -92.219454437806 76.637775578420 139.323681870598 238.319169721094 -23.741696594768 -23.824877445338 249.836299243156 20.685535029095 -38.590105513693 -4.725283823624 -2.592524778686 -0.348680184040 0.482162101016 2.124311427693 9.350396431363 -79.781613826022 21.432394793549 -128.218768096488 -0.067781998244 -0.093964058120 -1.041402281634 -3.973608896772 30.597471750154 16.602241833955 -0.942312986048 -56.869381404902 87.030032976258 13.081855212844 -6.735260341166 -36.915663642861 3.218965888185 16.510373225085 -42.852242088413 -31.394276226086 -11.935519003435 -16.691232349709 2.357445711894 45.041133462208 68.019602648445 1.569444693914 -1.073439258113 -1.937995907489 59.177917017315 4.268679518585 -24.265454006165 217.617414115034 -32.872396870824 45.653358426933 0.344608584737 1.493358031773 0.865413855241 -3.165454027887 44.862169754991 -65.987885909215 -7.991079788660 -33.303635184197 -18.299306329153 62.002437595627 11.953798005761 -2.939819138007 -14.542605997409 40.960784694652 55.120389877525 -1.256792353010 -0.303830371008 0.937950337844 60.358068892517 3.477556666889 -2.346621880910 42.297407750536 -18.724974089956 41.587503997536 1.143016400733 4.068541746643 1.537147007553 0.482982797213 -1.330298141585 1.397728412887 17.344785230065 -9.487603877127 3.284354703409 33.533985477664 -16.332253353995 -4.122623363450 -2.221093415111 0.427842914258 0.206770190205 11.610126331093 4.104735168837 -10.699146867641 12.794669650857 -0.674261575370 -14.226719208461 -16.283187445650 65.757574182298 -8.070267715691 20.737970111301 49.831610182979 52.879338529585 -11.424627393320 -58.363209434371 -79.246853634847 -1.890326108277 1.632477864227 46.992443571409 98.003268205299 24.182096263683 -19.961987458932 93.957802111436 76.896927886101 140.206886218524 -45.692325555446 6.485570208122 23.427531930859 -158.625648067307 39.194621282062 -16.939052262160 5.989810055582 -2.915136031398 -0.602464542097 -2.595347335969 6.938848533836 2.710977568000 73.017148321632 20.363716704663 -114.903615077269 0.456547226544 0.122090386368 -0.868950150821 6.261345311333 30.076131175928 17.062882257070 1.376677761124 -54.497769427639 83.074557043141 12.445510213148 427.482175084792 -151.592294515201 1.890864497323 27.198519369830 -20.933958122397 -2.675839840852 49.172080515720 39.105607112157 -0.026577495575 -53.350667543646 94.763122081741 -11.032142292659 118.036393980819 307.008611647105 -0.738380265527 181.139869058174 350.914131943636 -10.138580511902 283.197388817565 389.201361479893 -0.016077109396 1.236815908237 -0.994144887403 -22.989295588323 -44.645726559673 -798.882202051195 1.473362046614 78.596678670103 -313.610934630991 2.847220849999 -95.957302925392 -248.188031718890 0.101482992827 2.620668590436 71.268165021787 108.467745325805 -220.961659071991 45.190171583037 45.719246036212 -297.477369975076 455.178118625265 0.214306094194 23.690091978952 6.945475295672 -428.768636428074 -293.054369232450 5442.109497012902 -0.198796170201 0.072637784076 -0.532403003602 -1.185886464167 -132.535410520070 244.662605735166 -6.652677015020 -178.115215850127 -12.039706797011 1.797545271929 -18.516291513062 7.883248741603 -0.015924900077 -9.271192049270 -16.372947749754 -54.871825887758 164.335037648100 -115.629551202467 -2697.530936981773 -15295.955264316506 -3564.153816560345 175.644941380439 -1083.021841119885 -6692.680645291649 -0.032621131166 106.243191205552 -156.516569398662 18.223769368913 -62.577095654737 -656.877661031738 -164.677715848424 -258.843417378667 -140.948615603305 6.002684598616 -33.461238678805 132.960945097719 93.819999712351 105.554760793710 -139.625943868548 79.757993099327 -157.712078988536 327.917352901833 2804.611419313863 15310.389465396587 3558.508371863121 -140.676116183790 1077.330842641525 7056.048058351270 1.199441835374 -9.374193535749 -18.157539288665 -0.244672367700 -5.210620723086 -2.271260269920 -0.465660759563 24.253082370951 111.117492581178 1.667294717673 43.812906581902 166.681664156996 -0.289032128430 1.377095308312 1.915913214832 -12.841134631029 -433.558224575518 144.271283860749 0.280287805855 59.740075400263 15.625117650887 1.843804563831 123.047463143533 5.326222672979 6.520111439287 21.975206137829 -437.586830916118 -0.066729902743 -0.213185093123 4.308743479797 3.920699703104 -109.128722010042 -100.602297875521 13.166024909772 -371.451784305759 200.321730274540 0.885615014449 4.194870339812 -11.244661470008 52.593481713822 48.968479467534 80.561435649949 36.737903726244 -286.898136283466 73.606479153476 431.191892616144 373.429808693233 -5256.872737222284 -1.104095037860 0.847970461512 1.296733929702 14.356502850344 -108.512160108146 -32.095329212831 23.517728294095 -31.622824690308 35.847512630168 10.307108110525 -617.762808231848 133.972856823656 -1.039019897248 0.235466274960 0.884461617476 -34.976380641023 -256.169006557070 -979.861977244032 0.457734562082 -221.454549873165 -340.884682428656 66.623672979478 -614.711651061783 -858.248471416807 5.238585586041 0.429879228130 -4.618633941457 141.426698391708 20.934187979039 203.261997298755 143.196870668678 -154.994301366333 480.363088158083 38.407161738453 7.801664032007 327.874027238881 209.159912005992 -2934.820866254412 -4041.114351250719 0.522657493374 79.255409238433 -112.688709793758 157.840848587248 206.051557041831 -255.128137008055 80.230230227099 318.431274717448 -592.358969924789 -454.485638725609 75.576177794005 173.750389406657 -1.841930743692 131.462407321090 -312.193658633373 27.144126649516 96.684362622764 -204.804342048888 -0.601856733260 1.137521952823 1.215834676265 -1039.511077236737 8833.791105528566 12912.989829858894 -4.969901683933 -10.495767448565 -4.171988034006 -2.682045970176 -38.437993381671 18.662640773982 5.339637661943 -12.813948298175 -5.532142342188 38.692368579283 -2.710585731846 -104.485373594514 -0.165288008372 -15.361363582388 28.024135115948 341.985200547502 107.470088825414 199.069255832536 2.341340834581 -11.235711973384 -5.022832989090 1190.366351600095 -8827.609234050959 -13108.004691698210 1.290089684363 -109.819045782409 -14.125810085907 -60.121309866781 632.309879207376 696.468656465424 114.214874590360 -20.354635567547 119.583711759099 0.268367142173 -66.329730557825 -195.367458842237 -0.691954366126 -14.658157039456 -252.459361016612 -0.251408658540 -35.096991614510 -38.632451072039 14.603034125783 -54.992035769118 -37.154187988174 18.683679084449 -110.288366250514 -1.569808762152 14.469339835669 -52.206149104322 -4.760553705485 -9.065022983034 527.473466184366 -67.841422613536 -0.166540135715 -0.828164738002 2.035827419304 63.956008218913 294.963514274761 729.614454698827 117.539841414220 118.535273395972 13.842839590792 97.493711512056 -18.621470209878 428.521417125371 38.148076279460 -3.621828476284 368.327449419909 -154.264033446172 2952.295110138893 3829.475580375095 29.773894889012 161.872934144934 -18.043738653795 10.845475559734 -27.980580624795 -2.624089186365 98.648699484318 -135.846651251459 692.866403341788 8.246017029470 145.982731108220 -66.102466102627 -66.922920615832 77.747717305352 -23.995218186060 25.180485014314 -112.052205385654 98.423591670630 19.549749085271 -42.431207455889 90.396444958063 -55.683824556187 98.440980042747 -152.133324084843 -126.538717620756 72.746378226246 -5.709859578490 4.437841665521 -92.211639311991 11.979529094105 -71.747768360725 -72.368860546765 134.144257373188 99.208592210972 35.664243353241 -65.857379273063 133.892294898982 12.242560682557 -11.548079436035 41.187247479818 -60.505222908793 20.345215044786 91.994201613888 -92.842550027596 91.593773860685 45.427805812362 65.893081100291 -54.645535366519 110.759668525099 55.927554357391 -2.108482686883 -18.235921431899 -105.612500062176 92.327410440487 -4.645116820428 -38.922016961529 70.558693728374 -59.400518005213 -23.753912935338 -117.702661163353 -106.880106475976 -30.177027957186 10.079336633742 -16.922081951451 17.264869680779 21.107976055165 3.446555845070 -0.147308282479 2.736918972600 19.344029962125 25.629991017158 -96.601630686843 -21.702813676214 31.468631507215 -9.109039244352 -0.656823838068 0.946908576219 -1.085128522492 0.121575651472 -0.148301242602 3.723024533974 -7.419085906866 -4.220290324649 -8.295470145983 -2.364664855947 10.882456253780 -1.288445720866 25.677725093955 7.704844506480 62.428622662429 -24.386735523411 12.464597570375 7.639973511476 -9.021232978813 1.259414878451 0.343071579140 -0.185187834265 -1.625313227565 5.515997355663 18.101006381902 -12.252585928832 75.519420172808 -0.678273010854 0.326150633617 2.520452123131 659.261250751178 -129.923449228320 -263.137124017493 9.385747045870 14.575301176352 -0.607506990034 26.549033460791 143.171034165096 13.437733457889 16.893095846235 9.053457131617 6.754824380959 3.850498810806 -4.809404155367 0.599242949570 0.667387987610 1.213918690031 4.502412355651 -9.087752051079 -38.749873877342 111.501865336474 1.216127782050 -0.369452642418 5.250787528433 85.617352568811 -291.267037925784 114.677109611788 125.198049705044 295.633399317968 -85.679348556023 21.695876325091 20.963707331095 27.615911263094 -0.038906450473 -2.403767738718 4.280832610013 -14.644773932175 2.873689330791 -91.752221705641 162.134682238581 139.175081865784 -89.262745207516 13.994295063013 -4.634633403532 -7.497381146806 -0.299329397442 -0.050868766030 0.839197856800 -0.287551687107 -2.348987296014 -0.160206993885 0.901953347948 6.375094009914 0.300984159573 -0.722143747721 -3.953372770558 -0.278336338395