 DBCSR| CPU Multiplication driver                                           XSMM (U)
 DBCSR| Multrec recursion limit                                              512 (U)
 DBCSR| Multiplication stack size                                          30000 (D)
 DBCSR| Maximum elements for images                                    UNLIMITED (U)
 DBCSR| Multiplicative factor virtual images                                   1 (U)
 DBCSR| Use multiplication densification                                       F (D)
 DBCSR| Multiplication size stacks                                             3 (U)
 DBCSR| Use memory pool for CPU allocation                                     F (U)
 DBCSR| Number of 3D layers                                               SINGLE (U)
 DBCSR| Use MPI memory allocation                                              F (U)
 DBCSR| Use RMA algorithm                                                      F (U)
 DBCSR| Use Communication thread                                               T (U)
 DBCSR| Communication thread load                                             30 (D)
 DBCSR| MPI: My process id                                                     0
 DBCSR| MPI: Number of processes                                               1
 DBCSR| OMP: Current number of threads                                        16
 DBCSR| OMP: Max number of threads                                            16
 DBCSR| ACC: Number of devices/node                                            1
 DBCSR| ACC: Number of stack-buffers per thread                                8 (U)
 DBCSR| ACC: Avoid driver after busy                                           F (U)
 DBCSR| ACC: Process inhomogeneous stacks                                      T (U)
 DBCSR| ACC: Min. flop for processing                                          0 (U)
 DBCSR| ACC: Use G2G algorithm                                                 F (D)
 DBCSR| ACC: Min. flop for sorting                                          4000 (U)
 DBCSR| ACC: Number of binning bins                                         4096 (U)
 DBCSR| ACC: Size of binning bins                                             16 (U)
 DBCSR| ACC: GPU backend is enabled                                            T (D)
 DBCSR| Split modifier for TAS multiplication algorithm                  1.0E+00 (U)


  **** **** ******  **  PROGRAM STARTED AT               2025-10-04 15:25:31.592
 ***** ** ***  *** **   PROGRAM STARTED ON                          e6f2d0e0e03b
 **    ****   ******    PROGRAM STARTED BY                             <unknown>
 ***** **    ** ** **   PROGRAM PROCESS ID                                   614
  **** **  *******  **  PROGRAM STARTED IN                             /mnt/cp2k

 CP2K| version string:                                       CP2K version 2025.1
 CP2K| source code revision number:                                  git:9635df4
 CP2K| cp2kflags: omp libint fftw3 libxc libgrpp pexsi elpa elpa_nvidia_gpu para
 CP2K|            llel scalapack cosma quip xsmm dbcsr_acc plumed2 spglib libdft
 CP2K|            td4 sirius libvori libbqb offload_cuda spla_gemm_offloading li
 CP2K|            ibvdwxc hdf5 trexio
 CP2K| is freely available from                            https://www.cp2k.org/
 CP2K| Program compiled at                          Tue Jan 14 21:07:27 UTC 2025
 CP2K| Program compiled on                                          eb3a76499499
 CP2K| Program compiled for                                           local_cuda
 CP2K| Data directory path                                        /opt/cp2k/data
 CP2K| Input file name                                           HAP_300_opt.inp

 GLOBAL| Force Environment number                                              1
 GLOBAL| Basis set file name                                        BASIS_MOLOPT
 GLOBAL| Potential file name                                      GTH_POTENTIALS
 GLOBAL| MM Potential file name                                     MM_POTENTIAL
 GLOBAL| Coordinate file name                                  HAP_300_clean.xyz
 GLOBAL| Method name                                                        CP2K
 GLOBAL| Project name                                                HAP_300_opt
 GLOBAL| Run type                                                        GEO_OPT
 GLOBAL| FFT library                                                       FFTW3
 GLOBAL| Diagonalization library                                            ELPA
 GLOBAL| DGEMM library                                                      SPLA
 GLOBAL| Minimum number of eigenvectors for ELPA usage                        16
 GLOBAL| Orthonormality check for eigenvectors                          DISABLED
 GLOBAL| Matrix multiplication library                                     COSMA
 GLOBAL| All-to-all communication in single precision                          F
 GLOBAL| FFTs using library dependent lengths                                  F
 GLOBAL| Grid backend                                                       AUTO
 GLOBAL| Global print level                                                  LOW
 GLOBAL| MPI I/O enabled                                                       T
 GLOBAL| Total number of message passing processes                             1
 GLOBAL| Number of threads for this process                                   16
 GLOBAL| This output is from process                                           0
 GLOBAL| OpenMP stack size per thread (OMP_STACKSIZE)                        16M
 GLOBAL| CPU model name                           Intel(R) Core(TM) Ultra 7 265K
 GLOBAL| CPUID                                                              1002
 GLOBAL| Compiled for CPUID                                                    0

 *** HINT in environment.F:928 :: The compiler target flags (generic) used ***
 *** to build this binary cannot exploit all extensions of this CPU model  ***
 *** (x86_avx2). Consider compiler target flags as part of FCFLAGS and     ***
 *** CFLAGS (ARCH file).                                                   ***


 MEMORY| system memory details [Kb]
 MEMORY|                        rank 0           min           max       average
 MEMORY| MemTotal             49330324      49330324      49330324      49330324
 MEMORY| MemFree              47837204      47837204      47837204      47837204
 MEMORY| Buffers                  2356          2356          2356          2356
 MEMORY| Cached                 657276        657276        657276        657276
 MEMORY| Slab                    94392         94392         94392         94392
 MEMORY| SReclaimable            20708         20708         20708         20708
 MEMORY| MemLikelyFree        48517544      48517544      48517544      48517544


 GENERATE|  Preliminary Number of Bonds generated:                             0
 GENERATE|  Achieved consistency in connectivity generation.

 *******************************************************************************
 *******************************************************************************
 **                                                                           **
 **     #####                         ##              ##                      **
 **    ##   ##            ##          ##              ##                      **
 **   ##     ##                       ##            ######                    **
 **   ##     ##  ##   ##  ##   #####  ##  ##   ####   ##    #####    #####    **
 **   ##     ##  ##   ##  ##  ##      ## ##   ##      ##   ##   ##  ##   ##   **
 **   ##  ## ##  ##   ##  ##  ##      ####     ###    ##   ######   ######    **
 **    ##  ###   ##   ##  ##  ##      ## ##      ##   ##   ##       ##        **
 **     #######   #####   ##   #####  ##  ##  ####    ##    #####   ##        **
 **           ##                                                    ##        **
 **                                                                           **
 **                                                ... make the atoms dance   **
 **                                                                           **
 **            Copyright (C) by CP2K developers group (2000-2025)             **
 **                      J. Chem. Phys. 152, 194103 (2020)                    **
 **                                                                           **
 *******************************************************************************


 TOTAL NUMBERS AND MAXIMUM NUMBERS

  Total number of            - Atomic kinds:                                   5
                             - Atoms:                                        387
                             - Shell sets:                                   387
                             - Shells:                                      2013
                             - Primitive Cartesian functions:               2067
                             - Cartesian basis functions:                   5256
                             - Spherical basis functions:                   4917

  Maximum angular momentum of- Orbital basis functions:                        2
                             - Local part of the GTH pseudopotential:          2
                             - Non-local part of the GTH pseudopotential:      3


 SCF PARAMETERS         Density guess:                                    ATOMIC
                        --------------------------------------------------------
                        max_scf:                                             100
                        max_scf_history:                                       0
                        max_diis:                                              4
                        --------------------------------------------------------
                        eps_scf:                                        1.00E-06
                        eps_scf_history:                                0.00E+00
                        eps_diis:                                       1.00E-01
                        eps_eigval:                                     1.00E-05
                        --------------------------------------------------------
                        level_shift [a.u.]:                             0.000000
                        --------------------------------------------------------
                        Outer loop SCF in use 
                        No variables optimised in outer loop
                        eps_scf                                         1.00E-06
                        max_scf                                               50
                        No outer loop optimization
                        step_size                                       5.00E-01

 *******************************************************************************
 ***                     STARTING GEOMETRY OPTIMIZATION                      ***
 ***                                 L-BFGS                                  ***
 *******************************************************************************

 --------------------------
 OPTIMIZATION STEP:      1
 --------------------------

 Number of electrons:                                                       2350
 Number of occupied orbitals:                                               1175
 Number of molecular orbitals:                                              1175

 Number of orbital functions:                                               4917
 Number of independent orbital functions:                                   4917

 Extrapolation method: initial_guess


 SCF WAVEFUNCTION OPTIMIZATION

  ----------------------------------- OT ---------------------------------------
  Minimizer      : DIIS                : direct inversion
                                         in the iterative subspace
                                         using   7 DIIS vectors
                                         safer DIIS on
  Preconditioner : FULL_SINGLE_INVERSE : inversion of 
                                         H + eS - 2*(Sc)(c^T*H*c+const)(Sc)^T
  Precond_solver : DEFAULT
  stepsize       :    0.08000000                  energy_gap     :    0.08000000
  eps_taylor     :   0.10000E-15                  max_taylor     :             4
  ----------------------------------- OT ---------------------------------------

  Step     Update method      Time    Convergence         Total energy    Change
  ------------------------------------------------------------------------------
     1 OT DIIS     0.80E-01   32.5     0.01674026     -6442.0243363685 -6.44E+03
     2 OT DIIS     0.80E-01   13.0     0.01069478     -6517.3788145436 -7.54E+01
     3 OT DIIS     0.80E-01   13.1     0.00785884     -6547.3675190050 -3.00E+01
     4 OT DIIS     0.80E-01   13.1     0.00579331     -6570.7028763209 -2.33E+01
     5 OT DIIS     0.80E-01   12.8     0.00390824     -6591.6543662166 -2.10E+01
     6 OT DIIS     0.80E-01   12.9     0.00300036     -6604.4474911096 -1.28E+01
     7 OT DIIS     0.80E-01   13.0     0.00243888     -6612.1289443391 -7.68E+00
     8 OT DIIS     0.80E-01   12.9     0.00190106     -6618.4767133689 -6.35E+00
     9 OT DIIS     0.80E-01   12.8     0.00146582     -6623.3545751592 -4.88E+00
    10 OT DIIS     0.80E-01   12.5     0.00113986     -6626.4968398362 -3.14E+00
    11 OT DIIS     0.80E-01   12.8     0.00090994     -6628.4806399087 -1.98E+00
    12 OT DIIS     0.80E-01   13.1     0.00073518     -6629.8301759127 -1.35E+00
    13 OT DIIS     0.80E-01   13.2     0.00061622     -6630.6741592451 -8.44E-01
    14 OT DIIS     0.80E-01   12.7     0.00051537     -6631.3530638369 -6.79E-01
    15 OT DIIS     0.80E-01   13.0     0.00044119     -6631.8176092209 -4.65E-01
    16 OT DIIS     0.80E-01   13.0     0.00037869     -6632.1803613010 -3.63E-01
    17 OT DIIS     0.80E-01   13.1     0.00033121     -6632.4410034810 -2.61E-01
    18 OT DIIS     0.80E-01   12.4     0.00028903     -6632.6663753454 -2.25E-01
    19 OT DIIS     0.80E-01   13.1     0.00025330     -6632.8537857858 -1.87E-01
    20 OT DIIS     0.80E-01   13.0     0.00022346     -6633.0066557806 -1.53E-01
    21 OT DIIS     0.80E-01   13.0     0.00019992     -6633.1313164444 -1.25E-01
    22 OT DIIS     0.80E-01   13.0     0.00018060     -6633.2232510665 -9.19E-02
    23 OT DIIS     0.80E-01   12.8     0.00016366     -6633.3088771153 -8.56E-02
    24 OT DIIS     0.80E-01   12.8     0.00014943     -6633.3780665497 -6.92E-02
    25 OT DIIS     0.80E-01   13.0     0.00013743     -6633.4354687176 -5.74E-02
    26 OT DIIS     0.80E-01   12.3     0.00012662     -6633.4872796808 -5.18E-02
    27 OT DIIS     0.80E-01   12.7     0.00011518     -6633.5406678994 -5.34E-02
    28 OT DIIS     0.80E-01   12.6     0.00010657     -6633.5842050022 -4.35E-02
    29 OT DIIS     0.80E-01   13.2     0.00010006     -6633.6151325118 -3.09E-02
    30 OT DIIS     0.80E-01   13.2     0.00009293     -6633.6512062016 -3.61E-02
    31 OT DIIS     0.80E-01   13.1     0.00008696     -6633.6797469177 -2.85E-02
    32 OT DIIS     0.80E-01   13.1     0.00008166     -6633.7065335060 -2.68E-02
    33 OT DIIS     0.80E-01   12.8     0.00007653     -6633.7305621070 -2.40E-02
    34 OT DIIS     0.80E-01   12.6     0.00007167     -6633.7531637614 -2.26E-02
    35 OT DIIS     0.80E-01   12.8     0.00006723     -6633.7758470137 -2.27E-02
    36 OT DIIS     0.80E-01   13.0     0.00006386     -6633.7906777629 -1.48E-02
    37 OT DIIS     0.80E-01   12.7     0.00006033     -6633.8084279606 -1.78E-02
    38 OT DIIS     0.80E-01   12.7     0.00005672     -6633.8250649505 -1.66E-02
    39 OT DIIS     0.80E-01   12.7     0.00005391     -6633.8386550903 -1.36E-02
    40 OT DIIS     0.80E-01   12.6     0.00005108     -6633.8510059399 -1.24E-02
    41 OT DIIS     0.80E-01   12.7     0.00004804     -6633.8646035136 -1.36E-02
    42 OT DIIS     0.80E-01   12.6     0.00004589     -6633.8753598522 -1.08E-02
    43 OT DIIS     0.80E-01   13.1     0.00004390     -6633.8832946914 -7.93E-03
    44 OT DIIS     0.80E-01   12.9     0.00004176     -6633.8937891276 -1.05E-02
    45 OT DIIS     0.80E-01   13.1     0.00004002     -6633.9023437965 -8.55E-03
    46 OT DIIS     0.80E-01   12.9     0.00003867     -6633.9090721040 -6.73E-03
    47 OT DIIS     0.80E-01   13.2     0.00003654     -6633.9170444887 -7.97E-03
    48 OT DIIS     0.80E-01   12.9     0.00003455     -6633.9261711044 -9.13E-03
    49 OT DIIS     0.80E-01   13.0     0.00003293     -6633.9334358154 -7.26E-03
    50 OT DIIS     0.80E-01   12.6     0.00003174     -6633.9379271012 -4.49E-03
    51 OT DIIS     0.80E-01   12.9     0.00003043     -6633.9440330973 -6.11E-03
    52 OT DIIS     0.80E-01   12.9     0.00002929     -6633.9494686724 -5.44E-03
    53 OT DIIS     0.80E-01   13.0     0.00002851     -6633.9533244917 -3.86E-03
    54 OT DIIS     0.80E-01   13.0     0.00002723     -6633.9581681444 -4.84E-03
    55 OT DIIS     0.80E-01   13.0     0.00002637     -6633.9618174671 -3.65E-03
    56 OT DIIS     0.80E-01   13.0     0.00002553     -6633.9652768677 -3.46E-03
    57 OT DIIS     0.80E-01   12.8     0.00002468     -6633.9689979561 -3.72E-03
    58 OT DIIS     0.80E-01   12.6     0.00002411     -6633.9715749643 -2.58E-03
    59 OT DIIS     0.80E-01   12.7     0.00002351     -6633.9745946319 -3.02E-03
    60 OT DIIS     0.80E-01   12.7     0.00002320     -6633.9770347802 -2.44E-03
    61 OT DIIS     0.80E-01   13.0     0.00002277     -6633.9788201256 -1.79E-03
    62 OT DIIS     0.80E-01   12.9     0.00002205     -6633.9839051531 -5.09E-03
    63 OT DIIS     0.80E-01   13.0     0.00002121     -6633.9876929488 -3.79E-03
    64 OT DIIS     0.80E-01   12.8     0.00002058     -6633.9911404956 -3.45E-03
    65 OT DIIS     0.80E-01   12.6     0.00001997     -6633.9941271685 -2.99E-03
    66 OT DIIS     0.80E-01   12.5     0.00001934     -6633.9975919479 -3.46E-03
    67 OT DIIS     0.80E-01   12.8     0.00001892     -6633.9996524275 -2.06E-03
    68 OT DIIS     0.80E-01   12.9     0.00001845     -6634.0017376288 -2.09E-03
    69 OT DIIS     0.80E-01   12.7     0.00001818     -6634.0028355353 -1.10E-03
    70 OT DIIS     0.80E-01   12.6     0.00001771     -6634.0051173307 -2.28E-03
    71 OT DIIS     0.80E-01   13.0     0.00001736     -6634.0070304037 -1.91E-03
    72 OT DIIS     0.80E-01   12.9     0.00001682     -6634.0094740870 -2.44E-03
    73 OT DIIS     0.80E-01   12.9     0.00001644     -6634.0112500566 -1.78E-03
    74 OT DIIS     0.80E-01   12.7     0.00001607     -6634.0130466565 -1.80E-03
    75 OT DIIS     0.80E-01   12.9     0.00001580     -6634.0142044764 -1.16E-03
    76 OT DIIS     0.80E-01   13.2     0.00001551     -6634.0172870263 -3.08E-03
    77 OT DIIS     0.80E-01   12.9     0.00001522     -6634.0178020995 -5.15E-04
    78 OT DIIS     0.80E-01   13.0     0.00001470     -6634.0201309178 -2.33E-03
    79 OT DIIS     0.80E-01   13.1     0.00001436     -6634.0223117802 -2.18E-03
    80 OT DIIS     0.80E-01   12.9     0.00001405     -6634.0236629630 -1.35E-03
    81 OT DIIS     0.80E-01   12.9     0.00001374     -6634.0261738620 -2.51E-03
    82 OT DIIS     0.80E-01   12.6     0.00001333     -6634.0275942017 -1.42E-03
    83 OT DIIS     0.80E-01   13.0     0.00001306     -6634.0302617842 -2.67E-03
    84 OT DIIS     0.80E-01   12.8     0.00001266     -6634.0313335243 -1.07E-03
    85 OT DIIS     0.80E-01   12.8     0.00001241     -6634.0330779140 -1.74E-03
    86 OT DIIS     0.80E-01   12.9     0.00001216     -6634.0346312263 -1.55E-03
    87 OT DIIS     0.80E-01   13.1     0.00001191     -6634.0357899479 -1.16E-03
    88 OT DIIS     0.80E-01   12.7     0.00001176     -6634.0376001950 -1.81E-03
    89 OT DIIS     0.80E-01   12.9     0.00001212     -6634.0386849648 -1.08E-03
    90 OT DIIS     0.80E-01   12.4     0.00001123     -6634.0400516892 -1.37E-03
    91 OT DIIS     0.80E-01   13.0     0.00001094     -6634.0415655380 -1.51E-03
    92 OT DIIS     0.80E-01   12.8     0.00001065     -6634.0427745087 -1.21E-03
    93 OT DIIS     0.80E-01   13.2     0.00001045     -6634.0439457781 -1.17E-03
    94 OT DIIS     0.80E-01   12.6     0.00001018     -6634.0450529643 -1.11E-03
    95 OT DIIS     0.80E-01   12.9     0.00001001     -6634.0461322597 -1.08E-03
    96 OT DIIS     0.80E-01   13.0     0.00000980     -6634.0471211084 -9.89E-04
    97 OT DIIS     0.80E-01   13.2     0.00001021     -6634.0476781121 -5.57E-04
    98 OT DIIS     0.80E-01   12.6     0.00000937     -6634.0480575703 -3.79E-04
    99 OT DIIS     0.80E-01   13.1     0.00000875     -6634.0500685817 -2.01E-03
   100 OT DIIS     0.80E-01   12.7     0.00000838     -6634.0508421038 -7.74E-04

  Leaving inner SCF loop after reaching   100 steps.


  Electronic density on regular grids:      -2350.0000000104       -0.0000000104
  Core density on regular grids:             2349.9999999989       -0.0000000011
  Total charge density on r-space grids:       -0.0000000115
  Total charge density g-space grids:          -0.0000000115

  Overlap energy of the core charge distribution:               0.05566915263765
  Self energy of the core charge distribution:             -15464.48285609965569
  Core Hamiltonian energy:                                   4249.96440349543354
  Hartree energy:                                            5876.92954630045824
  Exchange-correlation energy:                              -1294.61767243908207
  Dispersion energy:                                           -1.89993251361555

  Total energy:                                             -6634.05084210382483

  outer SCF iter =    1 RMS gradient =   0.84E-05 energy =      -6634.0508421038

  ----------------------------------- OT ---------------------------------------
  Minimizer      : DIIS                : direct inversion
                                         in the iterative subspace
                                         using   7 DIIS vectors
                                         safer DIIS on
  Preconditioner : FULL_SINGLE_INVERSE : inversion of 
                                         H + eS - 2*(Sc)(c^T*H*c+const)(Sc)^T
  Precond_solver : DEFAULT
  stepsize       :    0.08000000                  energy_gap     :    0.08000000
  eps_taylor     :   0.10000E-15                  max_taylor     :             4
  ----------------------------------- OT ---------------------------------------

  Step     Update method      Time    Convergence         Total energy    Change
  ------------------------------------------------------------------------------
     1 OT DIIS     0.80E-01   37.1     0.00009162     -6634.0511714857 -3.29E-04
     2 OT DIIS     0.80E-01   12.4     0.00010598     -6634.0535933545 -2.42E-03
     3 OT DIIS     0.80E-01   12.5     0.00011700     -6634.0543153049 -7.22E-04
     4 OT DIIS     0.80E-01   12.4     0.00009417     -6634.0553910787 -1.08E-03
     5 OT DIIS     0.80E-01   12.0     0.00007553     -6634.0567994591 -1.41E-03
     6 OT DIIS     0.80E-01   12.2     0.00006465     -6634.0576748827 -8.75E-04
     7 OT DIIS     0.80E-01   12.3     0.00005603     -6634.0588558236 -1.18E-03
     8 OT DIIS     0.80E-01   12.5     0.00005221     -6634.0598680500 -1.01E-03
     9 OT DIIS     0.80E-01   12.4     0.00004519     -6634.0607709971 -9.03E-04
    10 OT DIIS     0.80E-01   12.7     0.00004757     -6634.0616315268 -8.61E-04
    11 OT DIIS     0.80E-01   12.8     0.00004223     -6634.0626470397 -1.02E-03
    12 OT DIIS     0.80E-01   12.9     0.00004296     -6634.0635213453 -8.74E-04
    13 OT DIIS     0.80E-01   13.0     0.00004476     -6634.0643109686 -7.90E-04
    14 OT DIIS     0.80E-01   12.7     0.00004292     -6634.0651956076 -8.85E-04
    15 OT DIIS     0.80E-01   12.8     0.00004103     -6634.0657963048 -6.01E-04
    16 OT DIIS     0.80E-01   13.0     0.00004107     -6634.0663871387 -5.91E-04
    17 OT DIIS     0.80E-01   13.1     0.00004005     -6634.0668152167 -4.28E-04
    18 OT DIIS     0.80E-01   12.8     0.00003831     -6634.0676311060 -8.16E-04
    19 OT DIIS     0.80E-01   12.9     0.00003932     -6634.0676314330 -3.27E-07
    20 OT DIIS     0.80E-01   12.7     0.00003896     -6634.0678947514 -2.63E-04
    21 OT DIIS     0.80E-01   12.8     0.00003812     -6634.0682355051 -3.41E-04
    22 OT DIIS     0.80E-01   13.1     0.00003561     -6634.0682486223 -1.31E-05
    23 OT DIIS     0.80E-01   12.6     0.00003148     -6634.0683456827 -9.71E-05
    24 OT DIIS     0.80E-01   12.9     0.00002837     -6634.0684473637 -1.02E-04
    25 OT DIIS     0.80E-01   12.6     0.00002599     -6634.0685571803 -1.10E-04
    26 OT DIIS     0.80E-01   13.0     0.00002493     -6634.0687140858 -1.57E-04
    27 OT DIIS     0.80E-01   12.8     0.00002527     -6634.0687850491 -7.10E-05
    28 OT DIIS     0.80E-01   12.9     0.00002505     -6634.0689248481 -1.40E-04
    29 OT DIIS     0.80E-01   12.8     0.00002609     -6634.0691320638 -2.07E-04
    30 OT DIIS     0.80E-01   13.0     0.00002766     -6634.0692160181 -8.40E-05
    31 OT DIIS     0.80E-01   12.9     0.00002739     -6634.0693313132 -1.15E-04
    32 OT DIIS     0.80E-01   12.9     0.00002670     -6634.0694491548 -1.18E-04
    33 OT DIIS     0.80E-01   13.1     0.00002542     -6634.0695762846 -1.27E-04
    34 OT DIIS     0.80E-01   12.6     0.00002415     -6634.0696495668 -7.33E-05
    35 OT DIIS     0.80E-01   12.7     0.00002356     -6634.0697044657 -5.49E-05
    36 OT DIIS     0.80E-01   12.9     0.00002221     -6634.0697684947 -6.40E-05
    37 OT DIIS     0.80E-01   12.8     0.00002171     -6634.0698895874 -1.21E-04
    38 OT DIIS     0.80E-01   12.9     0.00002196     -6634.0699519520 -6.24E-05
    39 OT DIIS     0.80E-01   13.2     0.00002190     -6634.0700328287 -8.09E-05
    40 OT DIIS     0.80E-01   12.8     0.00002186     -6634.0701416485 -1.09E-04
    41 OT DIIS     0.80E-01   12.9     0.00002220     -6634.0702856723 -1.44E-04
    42 OT DIIS     0.80E-01   13.0     0.00002253     -6634.0703528428 -6.72E-05
    43 OT DIIS     0.80E-01   12.8     0.00002318     -6634.0704710371 -1.18E-04
    44 OT DIIS     0.80E-01   13.1     0.00002280     -6634.0705200176 -4.90E-05
    45 OT DIIS     0.80E-01   13.0     0.00002215     -6634.0706151881 -9.52E-05
    46 OT DIIS     0.80E-01   12.8     0.00002167     -6634.0706608695 -4.57E-05
    47 OT DIIS     0.80E-01   13.0     0.00002065     -6634.0707007872 -3.99E-05
    48 OT DIIS     0.80E-01   12.8     0.00001955     -6634.0707628879 -6.21E-05
    49 OT DIIS     0.80E-01   13.0     0.00001917     -6634.0708583136 -9.54E-05
    50 OT DIIS     0.80E-01   12.9     0.00001911     -6634.0708991597 -4.08E-05
    51 OT DIIS     0.80E-01   13.0     0.00001956     -6634.0710123006 -1.13E-04
    52 OT DIIS     0.80E-01   12.8     0.00002016     -6634.0710826712 -7.04E-05
    53 OT DIIS     0.80E-01   12.8     0.00002061     -6634.0711743133 -9.16E-05
    54 OT DIIS     0.80E-01   12.8     0.00002128     -6634.0712531153 -7.88E-05
    55 OT DIIS     0.80E-01   12.9     0.00002123     -6634.0712940614 -4.09E-05
    56 OT DIIS     0.80E-01   12.8     0.00002007     -6634.0713420906 -4.80E-05
    57 OT DIIS     0.80E-01   13.0     0.00001919     -6634.0714292520 -8.72E-05
    58 OT DIIS     0.80E-01   12.9     0.00001829     -6634.0714273794  1.87E-06
    59 OT DIIS     0.80E-01   12.6     0.00001778     -6634.0715105435 -8.32E-05
    60 OT DIIS     0.80E-01   12.9     0.00001767     -6634.0715576291 -4.71E-05
    61 OT DIIS     0.80E-01   13.0     0.00001763     -6634.0716158239 -5.82E-05
    62 OT DIIS     0.80E-01   13.1     0.00001811     -6634.0716928073 -7.70E-05
    63 OT DIIS     0.80E-01   12.8     0.00001873     -6634.0717523446 -5.95E-05
    64 OT DIIS     0.80E-01   12.9     0.00001879     -6634.0718141095 -6.18E-05
    65 OT DIIS     0.80E-01   12.9     0.00001881     -6634.0719136370 -9.95E-05
    66 OT DIIS     0.80E-01   12.5     0.00001858     -6634.0719014401  1.22E-05
    67 OT DIIS     0.80E-01   12.8     0.00001806     -6634.0719879895 -8.65E-05
    68 OT DIIS     0.80E-01   13.0     0.00001770     -6634.0720236392 -3.56E-05
    69 OT DIIS     0.80E-01   12.6     0.00001697     -6634.0720487703 -2.51E-05
    70 OT DIIS     0.80E-01   13.0     0.00001653     -6634.0721044010 -5.56E-05
    71 OT DIIS     0.80E-01   12.6     0.00001641     -6634.0721468333 -4.24E-05
    72 OT DIIS     0.80E-01   12.5     0.00001628     -6634.0721920888 -4.53E-05
    73 OT DIIS     0.80E-01   13.0     0.00001642     -6634.0722738367 -8.17E-05
    74 OT DIIS     0.80E-01   12.9     0.00001688     -6634.0722898504 -1.60E-05
    75 OT DIIS     0.80E-01   12.9     0.00001699     -6634.0723817174 -9.19E-05
    76 OT DIIS     0.80E-01   12.9     0.00001752     -6634.0724378884 -5.62E-05
    77 OT DIIS     0.80E-01   12.7     0.00001735     -6634.0724467104 -8.82E-06
    78 OT DIIS     0.80E-01   12.9     0.00001683     -6634.0724984237 -5.17E-05
    79 OT DIIS     0.80E-01   12.7     0.00001635     -6634.0725318592 -3.34E-05
    80 OT DIIS     0.80E-01   12.8     0.00001563     -6634.0725582969 -2.64E-05
    81 OT DIIS     0.80E-01   12.8     0.00001513     -6634.0726159447 -5.76E-05
    82 OT DIIS     0.80E-01   12.7     0.00001504     -6634.0726277343 -1.18E-05
    83 OT DIIS     0.80E-01   12.9     0.00001487     -6634.0726927142 -6.50E-05
    84 OT DIIS     0.80E-01   12.8     0.00001543     -6634.0727547663 -6.21E-05
    85 OT DIIS     0.80E-01   12.7     0.00001592     -6634.0727756958 -2.09E-05
    86 OT DIIS     0.80E-01   12.7     0.00001610     -6634.0728340409 -5.83E-05
    87 OT DIIS     0.80E-01   12.9     0.00001627     -6634.0728797725 -4.57E-05
    88 OT DIIS     0.80E-01   13.2     0.00001597     -6634.0729034754 -2.37E-05
    89 OT DIIS     0.80E-01   13.0     0.00001528     -6634.0729513050 -4.78E-05
    90 OT DIIS     0.80E-01   12.8     0.00001487     -6634.0729509329  3.72E-07
    91 OT DIIS     0.80E-01   13.0     0.00001411     -6634.0729958649 -4.49E-05
    92 OT DIIS     0.80E-01   12.7     0.00001407     -6634.0730439897 -4.81E-05
    93 OT DIIS     0.80E-01   12.8     0.00001413     -6634.0730593458 -1.54E-05
    94 OT DIIS     0.80E-01   13.0     0.00001413     -6634.0731049815 -4.56E-05
    95 OT DIIS     0.80E-01   12.8     0.00001446     -6634.0731550852 -5.01E-05
    96 OT DIIS     0.80E-01   12.8     0.00001482     -6634.0731915379 -3.65E-05
    97 OT DIIS     0.80E-01   13.0     0.00001478     -6634.0732393772 -4.78E-05
    98 OT DIIS     0.80E-01   12.7     0.00001497     -6634.0732509168 -1.15E-05
    99 OT DIIS     0.80E-01   13.1     0.00001430     -6634.0732860946 -3.52E-05
   100 OT DIIS     0.80E-01   12.9     0.00001411     -6634.0733335430 -4.74E-05

  Leaving inner SCF loop after reaching   100 steps.


  Electronic density on regular grids:      -2350.0000000102       -0.0000000102
  Core density on regular grids:             2349.9999999989       -0.0000000011
  Total charge density on r-space grids:       -0.0000000113
  Total charge density g-space grids:          -0.0000000113

  Overlap energy of the core charge distribution:               0.05566915263765
  Self energy of the core charge distribution:             -15464.48285609965569
  Core Hamiltonian energy:                                   4249.85708843862449
  Hartree energy:                                            5876.97297110946420
  Exchange-correlation energy:                              -1294.57627363046822
  Dispersion energy:                                           -1.89993251361555

  Total energy:                                             -6634.07333354301227

  outer SCF iter =    2 RMS gradient =   0.14E-04 energy =      -6634.0733335430

  ----------------------------------- OT ---------------------------------------
  Minimizer      : DIIS                : direct inversion
                                         in the iterative subspace
                                         using   7 DIIS vectors
                                         safer DIIS on
  Preconditioner : FULL_SINGLE_INVERSE : inversion of 
                                         H + eS - 2*(Sc)(c^T*H*c+const)(Sc)^T
  Precond_solver : DEFAULT
  stepsize       :    0.08000000                  energy_gap     :    0.08000000
  eps_taylor     :   0.10000E-15                  max_taylor     :             4
  ----------------------------------- OT ---------------------------------------

  Step     Update method      Time    Convergence         Total energy    Change
  ------------------------------------------------------------------------------
     1 OT DIIS     0.80E-01   35.3     0.00001388     -6634.0733348977 -1.35E-06
     2 OT DIIS     0.80E-01   12.0     0.00004137     -6634.0733530904 -1.82E-05
     3 OT DIIS     0.80E-01   12.5     0.00001254     -6634.0734135761 -6.05E-05
     4 OT DIIS     0.80E-01   12.2     0.00001210     -6634.0734340132 -2.04E-05
     5 OT DIIS     0.80E-01   12.8     0.00001971     -6634.0738394377 -4.05E-04
     6 OT DIIS     0.80E-01   12.8     0.00003822     -6634.0753607659 -1.52E-03
     7 OT SD       0.80E-01   12.7     0.00003423     -6634.0753886916 -2.79E-05
     8 OT DIIS     0.80E-01   13.0     0.00010792     -6634.0749134334  4.75E-04
     9 OT DIIS     0.80E-01   13.0     0.00001179     -6634.0751082947 -1.95E-04
    10 OT SD       0.80E-01   13.0     0.00001782     -6634.0754816193 -3.73E-04
    11 OT DIIS     0.80E-01   12.9     0.00009125     -6634.0752370634  2.45E-04
    12 OT DIIS     0.80E-01   12.8     0.00000910     -6634.0755281213 -2.91E-04
    13 OT DIIS     0.80E-01   13.0     0.00000931     -6634.0755343592 -6.24E-06
    14 OT DIIS     0.80E-01   12.9     0.00000743     -6634.0755948761 -6.05E-05
    15 OT DIIS     0.80E-01   12.8     0.00000910     -6634.0757851038 -1.90E-04
    16 OT SD       0.80E-01   12.9     0.00000921     -6634.0759181948 -1.33E-04
    17 OT DIIS     0.80E-01   12.8     0.00003102     -6634.0759002739  1.79E-05
    18 OT DIIS     0.80E-01   13.0     0.00000960     -6634.0758759754  2.43E-05
    19 OT DIIS     0.80E-01   13.1     0.00000726     -6634.0759902139 -1.14E-04
    20 OT DIIS     0.80E-01   12.8     0.00000739     -6634.0760798691 -8.97E-05
    21 OT SD       0.80E-01   12.9     0.00000743     -6634.0761263925 -4.65E-05
    22 OT DIIS     0.80E-01   12.7     0.00002313     -6634.0761219555  4.44E-06
    23 OT SD       0.80E-01   13.0     0.00000719     -6634.0762405399 -1.19E-04
    24 OT DIIS     0.80E-01   12.8     0.00002501     -6634.0762323280  8.21E-06
    25 OT DIIS     0.80E-01   13.1     0.00000736     -6634.0762802791 -4.80E-05
    26 OT DIIS     0.80E-01   13.0     0.00000697     -6634.0763427425 -6.25E-05
    27 OT DIIS     0.80E-01   13.0     0.00000592     -6634.0763570683 -1.43E-05
    28 OT SD       0.80E-01   13.0     0.00000591     -6634.0764118090 -5.47E-05
    29 OT DIIS     0.80E-01   13.0     0.00001210     -6634.0764181968 -6.39E-06
    30 OT DIIS     0.80E-01   13.0     0.00000593     -6634.0764458508 -2.77E-05
    31 OT DIIS     0.80E-01   12.5     0.00000509     -6634.0764510823 -5.23E-06
    32 OT DIIS     0.80E-01   12.6     0.00000523     -6634.0764819200 -3.08E-05
    33 OT DIIS     0.80E-01   12.7     0.00000554     -6634.0765216444 -3.97E-05
    34 OT DIIS     0.80E-01   13.1     0.00000776     -6634.0765559887 -3.43E-05
    35 OT SD       0.80E-01   13.2     0.00000616     -6634.0766535641 -9.76E-05
    36 OT DIIS     0.80E-01   13.2     0.00001704     -6634.0766514010  2.16E-06
    37 OT DIIS     0.80E-01   13.0     0.00000696     -6634.0766481193  3.28E-06
    38 OT DIIS     0.80E-01   13.2     0.00000544     -6634.0767532328 -1.05E-04
    39 OT DIIS     0.80E-01   13.1     0.00000516     -6634.0767786473 -2.54E-05
    40 OT DIIS     0.80E-01   13.1     0.00000459     -6634.0767983231 -1.97E-05
    41 OT DIIS     0.80E-01   13.1     0.00000428     -6634.0768266658 -2.83E-05
    42 OT DIIS     0.80E-01   13.1     0.00000470     -6634.0768358563 -9.19E-06
    43 OT DIIS     0.80E-01   13.2     0.00000442     -6634.0768564440 -2.06E-05
    44 OT DIIS     0.80E-01   12.8     0.00000419     -6634.0768660930 -9.65E-06
    45 OT DIIS     0.80E-01   13.1     0.00000461     -6634.0768816992 -1.56E-05
    46 OT SD       0.80E-01   12.9     0.00000450     -6634.0769427155 -6.10E-05
    47 OT DIIS     0.80E-01   13.0     0.00001377     -6634.0769426400  7.55E-08
    48 OT DIIS     0.80E-01   13.0     0.00000455     -6634.0769753803 -3.27E-05
    49 OT DIIS     0.80E-01   12.8     0.00000412     -6634.0769771224 -1.74E-06
    50 OT DIIS     0.80E-01   12.9     0.00000408     -6634.0769948256 -1.77E-05
    51 OT SD       0.80E-01   13.2     0.00000389     -6634.0770167335 -2.19E-05
    52 OT DIIS     0.80E-01   12.9     0.00000991     -6634.0770191101 -2.38E-06
    53 OT SD       0.80E-01   12.8     0.00000357     -6634.0770592277 -4.01E-05
    54 OT DIIS     0.80E-01   13.0     0.00000701     -6634.0770628642 -3.64E-06
    55 OT DIIS     0.80E-01   13.0     0.00000359     -6634.0770843578 -2.15E-05
    56 OT DIIS     0.80E-01   13.1     0.00000352     -6634.0771007826 -1.64E-05
    57 OT DIIS     0.80E-01   12.8     0.00000361     -6634.0771117566 -1.10E-05
    58 OT DIIS     0.80E-01   12.8     0.00000377     -6634.0771150689 -3.31E-06
    59 OT DIIS     0.80E-01   13.1     0.00000332     -6634.0771380455 -2.30E-05
    60 OT SD       0.80E-01   13.1     0.00000361     -6634.0771466638 -8.62E-06
    61 OT DIIS     0.80E-01   13.1     0.00001101     -6634.0771473646 -7.01E-07
    62 OT DIIS     0.80E-01   13.0     0.00000326     -6634.0771784840 -3.11E-05
    63 OT DIIS     0.80E-01   13.0     0.00000317     -6634.0771819247 -3.44E-06
    64 OT DIIS     0.80E-01   12.9     0.00000362     -6634.0771836224 -1.70E-06
    65 OT DIIS     0.80E-01   13.2     0.00000365     -6634.0771852803 -1.66E-06
    66 OT DIIS     0.80E-01   13.0     0.00000315     -6634.0772129223 -2.76E-05
    67 OT SD       0.80E-01   13.2     0.00000308     -6634.0772236199 -1.07E-05
    68 OT DIIS     0.80E-01   12.9     0.00000547     -6634.0772267907 -3.17E-06
    69 OT DIIS     0.80E-01   13.1     0.00000306     -6634.0772380678 -1.13E-05
    70 OT DIIS     0.80E-01   13.2     0.00000310     -6634.0772383847 -3.17E-07
    71 OT DIIS     0.80E-01   12.8     0.00000304     -6634.0772413803 -3.00E-06
    72 OT DIIS     0.80E-01   12.8     0.00000317     -6634.0772589945 -1.76E-05
    73 OT DIIS     0.80E-01   12.9     0.00000303     -6634.0772882504 -2.93E-05
    74 OT SD       0.80E-01   12.8     0.00000324     -6634.0773009549 -1.27E-05
    75 OT DIIS     0.80E-01   12.9     0.00001025     -6634.0773010893 -1.34E-07
    76 OT SD       0.80E-01   12.9     0.00000316     -6634.0773194579 -1.84E-05
    77 OT DIIS     0.80E-01   12.8     0.00000915     -6634.0773200398 -5.82E-07
    78 OT DIIS     0.80E-01   12.7     0.00000286     -6634.0773368063 -1.68E-05
    79 OT DIIS     0.80E-01   13.0     0.00000292     -6634.0773442768 -7.47E-06
    80 OT DIIS     0.80E-01   12.8     0.00000303     -6634.0773474406 -3.16E-06
    81 OT SD       0.80E-01   12.8     0.00000303     -6634.0773675536 -2.01E-05
    82 OT DIIS     0.80E-01   12.7     0.00000960     -6634.0773677718 -2.18E-07
    83 OT DIIS     0.80E-01   13.1     0.00000269     -6634.0773825925 -1.48E-05
    84 OT DIIS     0.80E-01   12.7     0.00000269     -6634.0773828636 -2.71E-07
    85 OT SD       0.80E-01   12.7     0.00000274     -6634.0774041566 -2.13E-05
    86 OT DIIS     0.80E-01   12.9     0.00000598     -6634.0774060016 -1.85E-06
    87 OT DIIS     0.80E-01   12.6     0.00000272     -6634.0774172265 -1.12E-05
    88 OT SD       0.80E-01   13.2     0.00000263     -6634.0774364469 -1.92E-05
    89 OT DIIS     0.80E-01   12.7     0.00000510     -6634.0774385115 -2.06E-06
    90 OT DIIS     0.80E-01   12.8     0.00000260     -6634.0774539199 -1.54E-05
    91 OT SD       0.80E-01   13.0     0.00000271     -6634.0774709158 -1.70E-05
    92 OT DIIS     0.80E-01   12.6     0.00000697     -6634.0774721433 -1.23E-06
    93 OT DIIS     0.80E-01   13.1     0.00000274     -6634.0774892818 -1.71E-05
    94 OT SD       0.80E-01   12.7     0.00000274     -6634.0775107020 -2.14E-05
    95 OT DIIS     0.80E-01   12.7     0.00000759     -6634.0775114560 -7.54E-07
    96 OT DIIS     0.80E-01   12.8     0.00000258     -6634.0775224135 -1.10E-05
    97 OT DIIS     0.80E-01   12.9     0.00000278     -6634.0775425123 -2.01E-05
    98 OT SD       0.80E-01   12.7     0.00000287     -6634.0775484367 -5.92E-06
    99 OT DIIS     0.80E-01   12.9     0.00000968     -6634.0775479458  4.91E-07
   100 OT DIIS     0.80E-01   12.8     0.00000247     -6634.0775659324 -1.80E-05

  Leaving inner SCF loop after reaching   100 steps.


  Electronic density on regular grids:      -2350.0000000102       -0.0000000102
  Core density on regular grids:             2349.9999999989       -0.0000000011
  Total charge density on r-space grids:       -0.0000000114
  Total charge density g-space grids:          -0.0000000114

  Overlap energy of the core charge distribution:               0.05566915263765
  Self energy of the core charge distribution:             -15464.48285609965569
  Core Hamiltonian energy:                                   4249.82165227629321
  Hartree energy:                                            5876.99500071844523
  Exchange-correlation energy:                              -1294.56709946654655
  Dispersion energy:                                           -1.89993251361555

  Total energy:                                             -6634.07756593244267

  outer SCF iter =    3 RMS gradient =   0.25E-05 energy =      -6634.0775659324

  ----------------------------------- OT ---------------------------------------
  Minimizer      : DIIS                : direct inversion
                                         in the iterative subspace
                                         using   7 DIIS vectors
                                         safer DIIS on
  Preconditioner : FULL_SINGLE_INVERSE : inversion of 
                                         H + eS - 2*(Sc)(c^T*H*c+const)(Sc)^T
  Precond_solver : DEFAULT
  stepsize       :    0.08000000                  energy_gap     :    0.08000000
  eps_taylor     :   0.10000E-15                  max_taylor     :             4
  ----------------------------------- OT ---------------------------------------

  Step     Update method      Time    Convergence         Total energy    Change
  ------------------------------------------------------------------------------
     1 OT DIIS     0.80E-01   35.8     0.00000277     -6634.0775829761 -1.70E-05
     2 OT DIIS     0.80E-01   12.0     0.00000768     -6634.0775835940 -6.18E-07
     3 OT DIIS     0.80E-01   12.3     0.00000277     -6634.0775858437 -2.25E-06
     4 OT DIIS     0.80E-01   12.0     0.00000234     -6634.0775866450 -8.01E-07
     5 OT DIIS     0.80E-01   12.3     0.00000233     -6634.0775877468 -1.10E-06
     6 OT DIIS     0.80E-01   12.2     0.00000233     -6634.0775902350 -2.49E-06
     7 OT DIIS     0.80E-01   12.1     0.00000233     -6634.0775956133 -5.38E-06
     8 OT DIIS     0.80E-01   12.2     0.00000233     -6634.0776038049 -8.19E-06
     9 OT DIIS     0.80E-01   12.2     0.00000239     -6634.0776109747 -7.17E-06
    10 OT DIIS     0.80E-01   12.4     0.00000235     -6634.0776307496 -1.98E-05
    11 OT SD       0.80E-01   12.5     0.00000231     -6634.0776430201 -1.23E-05
    12 OT DIIS     0.80E-01   12.3     0.00000561     -6634.0776441500 -1.13E-06
    13 OT DIIS     0.80E-01   12.4     0.00000229     -6634.0776656694 -2.15E-05
    14 OT DIIS     0.80E-01   12.2     0.00000236     -6634.0776813959 -1.57E-05
    15 OT DIIS     0.80E-01   12.0     0.00000221     -6634.0776950281 -1.36E-05
    16 OT DIIS     0.80E-01   12.2     0.00000215     -6634.0777018045 -6.78E-06
    17 OT SD       0.80E-01   12.1     0.00000225     -6634.0777150394 -1.32E-05
    18 OT DIIS     0.80E-01   11.9     0.00000584     -6634.0777156314 -5.92E-07
    19 OT DIIS     0.80E-01   12.3     0.00000200     -6634.0777292608 -1.36E-05
    20 OT DIIS     0.80E-01   12.1     0.00000214     -6634.0777413235 -1.21E-05
    21 OT DIIS     0.80E-01   12.6     0.00000203     -6634.0777490349 -7.71E-06
    22 OT DIIS     0.80E-01   12.2     0.00000213     -6634.0777532685 -4.23E-06
    23 OT DIIS     0.80E-01   12.4     0.00000219     -6634.0777539266 -6.58E-07
    24 OT SD       0.80E-01   12.4     0.00000200     -6634.0777711667 -1.72E-05
    25 OT DIIS     0.80E-01   12.3     0.00000337     -6634.0777723379 -1.17E-06
    26 OT DIIS     0.80E-01   12.3     0.00000212     -6634.0777810906 -8.75E-06
    27 OT DIIS     0.80E-01   12.6     0.00000193     -6634.0777867556 -5.66E-06
    28 OT SD       0.80E-01   12.5     0.00000223     -6634.0777938201 -7.06E-06
    29 OT DIIS     0.80E-01   12.1     0.00000802     -6634.0777932240  5.96E-07
    30 OT DIIS     0.80E-01   12.2     0.00000235     -6634.0778227526 -2.95E-05
    31 OT SD       0.80E-01   12.3     0.00000270     -6634.0778364139 -1.37E-05
    32 OT SD       0.80E-01   12.5     0.00000905     -6634.0778348827  1.53E-06
    33 OT DIIS     0.80E-01   12.3     0.00005028     -6634.0777544637  8.04E-05
    34 OT DIIS     0.80E-01   12.3     0.00000179     -6634.0778441474 -8.97E-05
    35 OT SD       0.80E-01   12.4     0.00000206     -6634.0778588317 -1.47E-05
    36 OT DIIS     0.80E-01   12.5     0.00000503     -6634.0778591340 -3.02E-07
    37 OT DIIS     0.80E-01   12.4     0.00000190     -6634.0778760137 -1.69E-05
    38 OT SD       0.80E-01   12.4     0.00000213     -6634.0778871819 -1.12E-05
    39 OT DIIS     0.80E-01   12.2     0.00000583     -6634.0778870620  1.20E-07
    40 OT DIIS     0.80E-01   12.6     0.00000253     -6634.0778932807 -6.22E-06
    41 OT DIIS     0.80E-01   12.1     0.00000156     -6634.0778992656 -5.98E-06
    42 OT DIIS     0.80E-01   12.1     0.00000184     -6634.0779026457 -3.38E-06
    43 OT DIIS     0.80E-01   12.3     0.00000153     -6634.0779044903 -1.84E-06
    44 OT DIIS     0.80E-01   12.1     0.00000155     -6634.0779089302 -4.44E-06
    45 OT DIIS     0.80E-01   12.4     0.00000167     -6634.0779181794 -9.25E-06
    46 OT DIIS     0.80E-01   12.2     0.00000162     -6634.0779189432 -7.64E-07
    47 OT DIIS     0.80E-01   12.3     0.00000169     -6634.0779265730 -7.63E-06
    48 OT SD       0.80E-01   12.4     0.00000185     -6634.0779312910 -4.72E-06
    49 OT DIIS     0.80E-01   12.8     0.00000770     -6634.0779302302  1.06E-06
    50 OT DIIS     0.80E-01   13.0     0.00000147     -6634.0779417309 -1.15E-05
    51 OT DIIS     0.80E-01   12.8     0.00000144     -6634.0779446706 -2.94E-06
    52 OT SD       0.80E-01   12.5     0.00000151     -6634.0779459586 -1.29E-06
    53 OT DIIS     0.80E-01   13.0     0.00000476     -6634.0779459748 -1.62E-08
    54 OT DIIS     0.80E-01   12.9     0.00000136     -6634.0779589005 -1.29E-05
    55 OT SD       0.80E-01   13.1     0.00000146     -6634.0779592909 -3.90E-07
    56 OT DIIS     0.80E-01   12.7     0.00000444     -6634.0779593346 -4.36E-08
    57 OT DIIS     0.80E-01   12.9     0.00000133     -6634.0779642685 -4.93E-06
    58 OT DIIS     0.80E-01   12.8     0.00000127     -6634.0779687435 -4.48E-06
    59 OT DIIS     0.80E-01   13.0     0.00000127     -6634.0779713891 -2.65E-06
    60 OT DIIS     0.80E-01   12.7     0.00000130     -6634.0779733521 -1.96E-06
    61 OT SD       0.80E-01   13.0     0.00000120     -6634.0779792414 -5.89E-06
    62 OT DIIS     0.80E-01   12.6     0.00000194     -6634.0779797750 -5.34E-07
    63 OT DIIS     0.80E-01   13.0     0.00000119     -6634.0779844193 -4.64E-06
    64 OT DIIS     0.80E-01   12.9     0.00000119     -6634.0779878801 -3.46E-06
    65 OT DIIS     0.80E-01   12.8     0.00000116     -6634.0779913078 -3.43E-06
    66 OT DIIS     0.80E-01   12.7     0.00000125     -6634.0779937101 -2.40E-06
    67 OT DIIS     0.80E-01   12.7     0.00000121     -6634.0779963265 -2.62E-06
    68 OT SD       0.80E-01   13.0     0.00000116     -6634.0779975651 -1.24E-06
    69 OT DIIS     0.80E-01   12.5     0.00000183     -6634.0779980476 -4.83E-07
    70 OT DIIS     0.80E-01   12.9     0.00000115     -6634.0780045729 -6.53E-06
    71 OT DIIS     0.80E-01   12.9     0.00000113     -6634.0780067620 -2.19E-06
    72 OT SD       0.80E-01   12.8     0.00000118     -6634.0780082928 -1.53E-06
    73 OT DIIS     0.80E-01   12.9     0.00000291     -6634.0780085891 -2.96E-07
    74 OT DIIS     0.80E-01   12.7     0.00000113     -6634.0780128455 -4.26E-06
    75 OT DIIS     0.80E-01   12.8     0.00000109     -6634.0780163171 -3.47E-06
    76 OT DIIS     0.80E-01   13.0     0.00000117     -6634.0780179054 -1.59E-06
    77 OT SD       0.80E-01   13.0     0.00000108     -6634.0780228611 -4.96E-06
    78 OT DIIS     0.80E-01   12.6     0.00000175     -6634.0780233045 -4.43E-07
    79 OT DIIS     0.80E-01   13.3     0.00000107     -6634.0780262989 -2.99E-06
    80 OT DIIS     0.80E-01   12.9     0.00000110     -6634.0780307395 -4.44E-06
    81 OT DIIS     0.80E-01   12.7     0.00000109     -6634.0780346586 -3.92E-06
    82 OT DIIS     0.80E-01   12.8     0.00000110     -6634.0780374347 -2.78E-06
    83 OT SD       0.80E-01   12.9     0.00000110     -6634.0780418994 -4.46E-06
    84 OT DIIS     0.80E-01   13.0     0.00000293     -6634.0780421126 -2.13E-07
    85 OT DIIS     0.80E-01   12.9     0.00000103     -6634.0780460392 -3.93E-06
    86 OT DIIS     0.80E-01   12.7     0.00000108     -6634.0780500569 -4.02E-06
    87 OT SD       0.80E-01   13.0     0.00000103     -6634.0780541810 -4.12E-06
    88 OT SD       0.80E-01   12.6     0.00000171     -6634.0780545398 -3.59E-07
    89 OT DIIS     0.80E-01   12.7     0.00000770     -6634.0780529959  1.54E-06
    90 OT SD       0.80E-01   12.9     0.00000100     -6634.0780574432 -4.45E-06
    91 OT DIIS     0.80E-01   13.0     0.00000181     -6634.0780577755 -3.32E-07
    92 OT DIIS     0.80E-01   13.2     0.00000100     -6634.0780609172 -3.14E-06
    93 OT DIIS     0.80E-01   12.5     0.00000101     -6634.0780670563 -6.14E-06
    94 OT SD       0.80E-01   12.8     0.00000105     -6634.0780713732 -4.32E-06
    95 OT SD       0.80E-01   12.9     0.00000216     -6634.0780716065 -2.33E-07
    96 OT DIIS     0.80E-01   12.8     0.00000986     -6634.0780685935  3.01E-06
    97 OT DIIS     0.80E-01   12.9     0.00000096     -6634.0780758244 -7.23E-06

  *** SCF run converged in    97 steps ***


  Electronic density on regular grids:      -2350.0000000101       -0.0000000101
  Core density on regular grids:             2349.9999999989       -0.0000000011
  Total charge density on r-space grids:       -0.0000000112
  Total charge density g-space grids:          -0.0000000112

  Overlap energy of the core charge distribution:               0.05566915263765
  Self energy of the core charge distribution:             -15464.48285609965569
  Core Hamiltonian energy:                                   4249.81709037286873
  Hartree energy:                                            5876.99825915642850
  Exchange-correlation energy:                              -1294.56630589311180
  Dispersion energy:                                           -1.89993251361555

  Total energy:                                             -6634.07807582444912

  outer SCF iter =    4 RMS gradient =   0.96E-06 energy =      -6634.0780758244
  outer SCF loop converged in   4 iterations or  397 steps


 ENERGY| Total FORCE_EVAL ( QS ) energy [hartree]          -6634.078077911622131

 Number of electrons:                                                       2350
 Number of occupied orbitals:                                               1175
 Number of molecular orbitals:                                              1175

 Number of orbital functions:                                               4917
 Number of independent orbital functions:                                   4917

 Extrapolation method: ASPC


 SCF WAVEFUNCTION OPTIMIZATION

  ----------------------------------- OT ---------------------------------------
  Minimizer      : DIIS                : direct inversion
                                         in the iterative subspace
                                         using   7 DIIS vectors
                                         safer DIIS on
  Preconditioner : FULL_SINGLE_INVERSE : inversion of 
                                         H + eS - 2*(Sc)(c^T*H*c+const)(Sc)^T
  Precond_solver : DEFAULT
  stepsize       :    0.08000000                  energy_gap     :    0.08000000
  eps_taylor     :   0.10000E-15                  max_taylor     :             4
  ----------------------------------- OT ---------------------------------------

  Step     Update method      Time    Convergence         Total energy    Change
  ------------------------------------------------------------------------------
     1 OT DIIS     0.80E-01   18.8     0.00572702     -6647.5924937688 -6.65E+03
     2 OT DIIS     0.80E-01   12.5     0.00358364     -6659.2596588834 -1.17E+01
     3 OT DIIS     0.80E-01   12.8     0.00303938     -6664.9641074629 -5.70E+00
     4 OT DIIS     0.80E-01   12.8     0.00240979     -6667.0967308309 -2.13E+00
     5 OT DIIS     0.80E-01   12.7     0.00212875     -6668.2289891360 -1.13E+00
     6 OT DIIS     0.80E-01   12.9     0.00148728     -6668.9319246836 -7.03E-01
     7 OT DIIS     0.80E-01   13.0     0.00131263     -6669.4455808869 -5.14E-01
     8 OT DIIS     0.80E-01   13.1     0.00128883     -6669.8896419977 -4.44E-01
     9 OT DIIS     0.80E-01   12.9     0.00118713     -6670.1306751564 -2.41E-01
    10 OT DIIS     0.80E-01   12.6     0.00115086     -6670.3321378405 -2.01E-01
    11 OT SD       0.80E-01   12.7     0.00117418     -6670.4525828092 -1.20E-01
    12 OT SD       0.80E-01   12.9     0.00116517     -6671.0188706187 -5.66E-01
    13 OT SD       0.80E-01   13.2     0.00211318     -6671.3269660039 -3.08E-01
    14 OT DIIS     0.80E-01   12.9     0.00608579     -6669.6983794516  1.63E+00
    15 OT DIIS     0.80E-01   12.8     0.00157931     -6670.9552108243 -1.26E+00
    16 OT DIIS     0.80E-01   12.9     0.00148136     -6671.2599122175 -3.05E-01
    17 OT DIIS     0.80E-01   12.8     0.00136480     -6671.5422410172 -2.82E-01
    18 OT DIIS     0.80E-01   12.5     0.00111181     -6671.7081080746 -1.66E-01
    19 OT DIIS     0.80E-01   12.7     0.00090050     -6671.9909418704 -2.83E-01
    20 OT DIIS     0.80E-01   13.0     0.00095894     -6672.2358533025 -2.45E-01
    21 OT DIIS     0.80E-01   13.0     0.00090113     -6672.3547707575 -1.19E-01
    22 OT DIIS     0.80E-01   12.7     0.00072121     -6672.5696863536 -2.15E-01
    23 OT DIIS     0.80E-01   13.1     0.00076282     -6672.7290743312 -1.59E-01
    24 OT DIIS     0.80E-01   12.8     0.00068314     -6672.8597612860 -1.31E-01
    25 OT DIIS     0.80E-01   12.9     0.00069569     -6672.9874139271 -1.28E-01
    26 OT DIIS     0.80E-01   12.4     0.00066881     -6673.0748043496 -8.74E-02
    27 OT DIIS     0.80E-01   12.7     0.00053104     -6673.2304004211 -1.56E-01
    28 OT DIIS     0.80E-01   12.8     0.00050502     -6673.3019956232 -7.16E-02
    29 OT DIIS     0.80E-01   12.6     0.00048567     -6673.3788327163 -7.68E-02
    30 OT DIIS     0.80E-01   13.0     0.00039974     -6673.5025209954 -1.24E-01
    31 OT DIIS     0.80E-01   13.1     0.00037473     -6673.6092270322 -1.07E-01
    32 OT DIIS     0.80E-01   12.8     0.00039063     -6673.6757444097 -6.65E-02
    33 OT DIIS     0.80E-01   12.7     0.00033495     -6673.7464497553 -7.07E-02
    34 OT DIIS     0.80E-01   12.3     0.00031112     -6673.7939860440 -4.75E-02
    35 OT DIIS     0.80E-01   12.8     0.00026628     -6673.8515381382 -5.76E-02
    36 OT DIIS     0.80E-01   12.9     0.00026671     -6673.8963621287 -4.48E-02
    37 OT DIIS     0.80E-01   12.8     0.00022967     -6673.9230575827 -2.67E-02
    38 OT DIIS     0.80E-01   12.8     0.00018916     -6673.9530043626 -2.99E-02
    39 OT DIIS     0.80E-01   12.8     0.00017049     -6673.9827606325 -2.98E-02
    40 OT DIIS     0.80E-01   12.7     0.00015158     -6673.9976175529 -1.49E-02
    41 OT DIIS     0.80E-01   12.8     0.00013938     -6674.0152527253 -1.76E-02
    42 OT DIIS     0.80E-01   12.6     0.00013696     -6674.0284955942 -1.32E-02
    43 OT DIIS     0.80E-01   12.9     0.00010727     -6674.0369478120 -8.45E-03
    44 OT DIIS     0.80E-01   12.9     0.00009449     -6674.0442068357 -7.26E-03
    45 OT DIIS     0.80E-01   12.9     0.00009235     -6674.0482889729 -4.08E-03
    46 OT DIIS     0.80E-01   13.0     0.00008183     -6674.0531287096 -4.84E-03
    47 OT DIIS     0.80E-01   12.9     0.00007165     -6674.0578911316 -4.76E-03
    48 OT DIIS     0.80E-01   12.8     0.00006973     -6674.0612143107 -3.32E-03
    49 OT DIIS     0.80E-01   12.7     0.00005977     -6674.0633252247 -2.11E-03
    50 OT DIIS     0.80E-01   12.4     0.00005345     -6674.0649793127 -1.65E-03
    51 OT DIIS     0.80E-01   12.8     0.00005285     -6674.0668948559 -1.92E-03
    52 OT DIIS     0.80E-01   12.9     0.00004922     -6674.0687644522 -1.87E-03
    53 OT DIIS     0.80E-01   13.1     0.00004867     -6674.0704947381 -1.73E-03
    54 OT DIIS     0.80E-01   12.9     0.00004283     -6674.0716399594 -1.15E-03
    55 OT DIIS     0.80E-01   12.8     0.00003783     -6674.0729867173 -1.35E-03
    56 OT DIIS     0.80E-01   12.6     0.00003415     -6674.0736360392 -6.49E-04
    57 OT DIIS     0.80E-01   12.9     0.00003279     -6674.0744437449 -8.08E-04
    58 OT DIIS     0.80E-01   12.6     0.00003208     -6674.0751424304 -6.99E-04
    59 OT DIIS     0.80E-01   12.8     0.00003074     -6674.0760578233 -9.15E-04
    60 OT DIIS     0.80E-01   12.8     0.00002786     -6674.0768903563 -8.33E-04
    61 OT DIIS     0.80E-01   12.9     0.00002730     -6674.0776982008 -8.08E-04
    62 OT DIIS     0.80E-01   13.0     0.00002466     -6674.0779233028 -2.25E-04
    63 OT DIIS     0.80E-01   12.8     0.00002239     -6674.0783891666 -4.66E-04
    64 OT DIIS     0.80E-01   12.9     0.00002185     -6674.0787955073 -4.06E-04
    65 OT DIIS     0.80E-01   12.8     0.00002139     -6674.0792444461 -4.49E-04
    66 OT DIIS     0.80E-01   12.6     0.00001982     -6674.0796625857 -4.18E-04
    67 OT DIIS     0.80E-01   12.8     0.00001897     -6674.0800689389 -4.06E-04
    68 OT DIIS     0.80E-01   13.0     0.00001751     -6674.0803593394 -2.90E-04
    69 OT DIIS     0.80E-01   12.9     0.00001673     -6674.0806641117 -3.05E-04
    70 OT DIIS     0.80E-01   12.8     0.00001667     -6674.0808438430 -1.80E-04
    71 OT DIIS     0.80E-01   12.8     0.00001625     -6674.0811895456 -3.46E-04
    72 OT DIIS     0.80E-01   13.1     0.00001523     -6674.0814701500 -2.81E-04
    73 OT DIIS     0.80E-01   12.7     0.00001423     -6674.0817148421 -2.45E-04
    74 OT DIIS     0.80E-01   12.3     0.00001323     -6674.0818809199 -1.66E-04
    75 OT DIIS     0.80E-01   12.7     0.00001245     -6674.0820198542 -1.39E-04
    76 OT DIIS     0.80E-01   12.7     0.00001204     -6674.0821515194 -1.32E-04
    77 OT DIIS     0.80E-01   13.1     0.00001201     -6674.0823632282 -2.12E-04
    78 OT DIIS     0.80E-01   12.9     0.00001228     -6674.0824972453 -1.34E-04
    79 OT DIIS     0.80E-01   13.2     0.00001094     -6674.0826550542 -1.58E-04
    80 OT DIIS     0.80E-01   12.9     0.00001025     -6674.0827686745 -1.14E-04
    81 OT DIIS     0.80E-01   12.7     0.00000972     -6674.0828627047 -9.40E-05
    82 OT DIIS     0.80E-01   12.6     0.00000937     -6674.0829309918 -6.83E-05
    83 OT DIIS     0.80E-01   12.9     0.00000931     -6674.0830342030 -1.03E-04
    84 OT DIIS     0.80E-01   12.6     0.00000921     -6674.0831477254 -1.14E-04
    85 OT DIIS     0.80E-01   12.9     0.00000881     -6674.0832885553 -1.41E-04
    86 OT DIIS     0.80E-01   12.6     0.00000857     -6674.0833672890 -7.87E-05
    87 OT DIIS     0.80E-01   12.7     0.00000811     -6674.0834386889 -7.14E-05
    88 OT DIIS     0.80E-01   13.1     0.00000786     -6674.0835012159 -6.25E-05
    89 OT DIIS     0.80E-01   12.8     0.00000774     -6674.0835773136 -7.61E-05
    90 OT DIIS     0.80E-01   12.8     0.00000777     -6674.0836597190 -8.24E-05
    91 OT DIIS     0.80E-01   12.9     0.00000752     -6674.0837628047 -1.03E-04
    92 OT DIIS     0.80E-01   12.8     0.00000716     -6674.0838341356 -7.13E-05
    93 OT DIIS     0.80E-01   12.8     0.00000689     -6674.0839002688 -6.61E-05
    94 OT DIIS     0.80E-01   12.9     0.00000684     -6674.0839465428 -4.63E-05
    95 OT DIIS     0.80E-01   12.9     0.00000673     -6674.0839952064 -4.87E-05
    96 OT DIIS     0.80E-01   12.9     0.00000673     -6674.0840669118 -7.17E-05
    97 OT DIIS     0.80E-01   13.0     0.00000666     -6674.0841563116 -8.94E-05
    98 OT DIIS     0.80E-01   12.6     0.00000644     -6674.0842209383 -6.46E-05
    99 OT DIIS     0.80E-01   12.9     0.00000623     -6674.0842778327 -5.69E-05
   100 OT DIIS     0.80E-01   12.7     0.00000613     -6674.0843166113 -3.88E-05

  Leaving inner SCF loop after reaching   100 steps.


  Electronic density on regular grids:      -2349.9999999923        0.0000000077
  Core density on regular grids:             2349.9999999989       -0.0000000011
  Total charge density on r-space grids:        0.0000000066
  Total charge density g-space grids:           0.0000000066

  Overlap energy of the core charge distribution:               0.00150392871526
  Self energy of the core charge distribution:             -15464.48285609965569
  Core Hamiltonian energy:                                   4164.81125876733222
  Hartree energy:                                            5912.13265478423000
  Exchange-correlation energy:                              -1284.64798684736024
  Dispersion energy:                                           -1.89889114459496

  Total energy:                                             -6674.08431661133454

  outer SCF iter =    1 RMS gradient =   0.61E-05 energy =      -6674.0843166113

  ----------------------------------- OT ---------------------------------------
  Minimizer      : DIIS                : direct inversion
                                         in the iterative subspace
                                         using   7 DIIS vectors
                                         safer DIIS on
  Preconditioner : FULL_SINGLE_INVERSE : inversion of 
                                         H + eS - 2*(Sc)(c^T*H*c+const)(Sc)^T
  Precond_solver : DEFAULT
  stepsize       :    0.08000000                  energy_gap     :    0.08000000
  eps_taylor     :   0.10000E-15                  max_taylor     :             4
  ----------------------------------- OT ---------------------------------------

  Step     Update method      Time    Convergence         Total energy    Change
  ------------------------------------------------------------------------------
     1 OT DIIS     0.80E-01   36.1     0.00003407     -6674.0843678247 -5.12E-05
     2 OT DIIS     0.80E-01   12.1     0.00002537     -6674.0848212551 -4.53E-04
     3 OT DIIS     0.80E-01   12.2     0.00004273     -6674.0851467282 -3.25E-04
     4 OT DIIS     0.80E-01   12.2     0.00003197     -6674.0853062532 -1.60E-04
     5 OT DIIS     0.80E-01   12.2     0.00001513     -6674.0853992264 -9.30E-05
     6 OT DIIS     0.80E-01   12.1     0.00001535     -6674.0854524667 -5.32E-05
     7 OT DIIS     0.80E-01   12.3     0.00001260     -6674.0854947112 -4.22E-05
     8 OT DIIS     0.80E-01   12.5     0.00001189     -6674.0855554108 -6.07E-05
     9 OT DIIS     0.80E-01   12.2     0.00001224     -6674.0855922893 -3.69E-05
    10 OT DIIS     0.80E-01   12.5     0.00001112     -6674.0856670187 -7.47E-05
    11 OT DIIS     0.80E-01   12.4     0.00001071     -6674.0857581995 -9.12E-05
    12 OT DIIS     0.80E-01   11.9     0.00001094     -6674.0858455173 -8.73E-05
    13 OT DIIS     0.80E-01   11.9     0.00001174     -6674.0859158027 -7.03E-05
    14 OT DIIS     0.80E-01   12.4     0.00001033     -6674.0860024987 -8.67E-05
    15 OT DIIS     0.80E-01   12.0     0.00001008     -6674.0860938413 -9.13E-05
    16 OT DIIS     0.80E-01   12.4     0.00000974     -6674.0861720141 -7.82E-05
    17 OT DIIS     0.80E-01   12.1     0.00000829     -6674.0862508532 -7.88E-05
    18 OT DIIS     0.80E-01   11.9     0.00000790     -6674.0862989606 -4.81E-05
    19 OT DIIS     0.80E-01   12.3     0.00000765     -6674.0863409035 -4.19E-05
    20 OT DIIS     0.80E-01   12.1     0.00000744     -6674.0863833000 -4.24E-05
    21 OT DIIS     0.80E-01   12.3     0.00000722     -6674.0864133596 -3.01E-05
    22 OT DIIS     0.80E-01   12.1     0.00000667     -6674.0864399755 -2.66E-05
    23 OT DIIS     0.80E-01   12.2     0.00000640     -6674.0864667107 -2.67E-05
    24 OT DIIS     0.80E-01   12.2     0.00000620     -6674.0864915600 -2.48E-05
    25 OT DIIS     0.80E-01   12.2     0.00000605     -6674.0865205758 -2.90E-05
    26 OT DIIS     0.80E-01   12.1     0.00000619     -6674.0865531667 -3.26E-05
    27 OT DIIS     0.80E-01   12.1     0.00000590     -6674.0865869790 -3.38E-05
    28 OT DIIS     0.80E-01   12.1     0.00000575     -6674.0866176928 -3.07E-05
    29 OT DIIS     0.80E-01   12.3     0.00000578     -6674.0866438935 -2.62E-05
    30 OT DIIS     0.80E-01   12.3     0.00000569     -6674.0866703895 -2.65E-05
    31 OT DIIS     0.80E-01   12.1     0.00000564     -6674.0867053426 -3.50E-05
    32 OT DIIS     0.80E-01   12.3     0.00000565     -6674.0867429141 -3.76E-05
    33 OT DIIS     0.80E-01   12.3     0.00000552     -6674.0867846708 -4.18E-05
    34 OT DIIS     0.80E-01   12.4     0.00000534     -6674.0868149827 -3.03E-05
    35 OT DIIS     0.80E-01   12.3     0.00000536     -6674.0868488891 -3.39E-05
    36 OT DIIS     0.80E-01   12.7     0.00000555     -6674.0868980390 -4.91E-05
    37 OT DIIS     0.80E-01   13.1     0.00000563     -6674.0869560864 -5.80E-05
    38 OT DIIS     0.80E-01   12.9     0.00000522     -6674.0869992216 -4.31E-05
    39 OT DIIS     0.80E-01   12.8     0.00000501     -6674.0870234660 -2.42E-05
    40 OT DIIS     0.80E-01   12.9     0.00000457     -6674.0870375290 -1.41E-05
    41 OT DIIS     0.80E-01   12.7     0.00000558     -6674.0870664076 -2.89E-05
    42 OT DIIS     0.80E-01   13.1     0.00000499     -6674.0870992150 -3.28E-05
    43 OT DIIS     0.80E-01   12.6     0.00000532     -6674.0871128046 -1.36E-05
    44 OT DIIS     0.80E-01   12.8     0.00000368     -6674.0871197648 -6.96E-06
    45 OT DIIS     0.80E-01   13.2     0.00000368     -6674.0871230581 -3.29E-06
    46 OT DIIS     0.80E-01   12.9     0.00000485     -6674.0871246551 -1.60E-06
    47 OT DIIS     0.80E-01   12.9     0.00000407     -6674.0871265494 -1.89E-06
    48 OT DIIS     0.80E-01   12.7     0.00000303     -6674.0871334865 -6.94E-06
    49 OT DIIS     0.80E-01   12.7     0.00000315     -6674.0871381280 -4.64E-06
    50 OT DIIS     0.80E-01   12.7     0.00000272     -6674.0871546089 -1.65E-05
    51 OT DIIS     0.80E-01   13.0     0.00000300     -6674.0871634804 -8.87E-06
    52 OT DIIS     0.80E-01   13.0     0.00000213     -6674.0871699549 -6.47E-06
    53 OT DIIS     0.80E-01   13.0     0.00000327     -6674.0871734021 -3.45E-06
    54 OT DIIS     0.80E-01   13.2     0.00000201     -6674.0871755970 -2.19E-06
    55 OT DIIS     0.80E-01   12.8     0.00000240     -6674.0871770834 -1.49E-06
    56 OT DIIS     0.80E-01   13.0     0.00000240     -6674.0871782216 -1.14E-06
    57 OT DIIS     0.80E-01   12.6     0.00000179     -6674.0871803981 -2.18E-06
    58 OT DIIS     0.80E-01   12.9     0.00000185     -6674.0871806381 -2.40E-07
    59 OT SD       0.80E-01   12.8     0.00000184     -6674.0871812827 -6.45E-07
    60 OT DIIS     0.80E-01   13.0     0.00000718     -6674.0871800185  1.26E-06
    61 OT SD       0.80E-01   12.7     0.00000164     -6674.0871826159 -2.60E-06
    62 OT DIIS     0.80E-01   12.8     0.00000671     -6674.0871815832  1.03E-06
    63 OT SD       0.80E-01   12.8     0.00000152     -6674.0871850842 -3.50E-06
    64 OT DIIS     0.80E-01   13.2     0.00000611     -6674.0871841836  9.01E-07
    65 OT DIIS     0.80E-01   12.8     0.00000127     -6674.0871867366 -2.55E-06
    66 OT SD       0.80E-01   13.1     0.00000108     -6674.0871879246 -1.19E-06
    67 OT DIIS     0.80E-01   12.9     0.00000335     -6674.0871878488  7.58E-08
    68 OT DIIS     0.80E-01   12.8     0.00000097     -6674.0871891617 -1.31E-06

  *** SCF run converged in    68 steps ***


  Electronic density on regular grids:      -2349.9999999923        0.0000000077
  Core density on regular grids:             2349.9999999989       -0.0000000011
  Total charge density on r-space grids:        0.0000000066
  Total charge density g-space grids:           0.0000000066

  Overlap energy of the core charge distribution:               0.00150392871526
  Self energy of the core charge distribution:             -15464.48285609965569
  Core Hamiltonian energy:                                   4164.80485589114505
  Hartree energy:                                            5912.14022070155625
  Exchange-correlation energy:                              -1284.65202243888598
  Dispersion energy:                                           -1.89889114459496

  Total energy:                                             -6674.08718916171983

  outer SCF iter =    2 RMS gradient =   0.97E-06 energy =      -6674.0871891617
  outer SCF loop converged in   2 iterations or  168 steps


 ENERGY| Total FORCE_EVAL ( QS ) energy [hartree]          -6674.087189701088391

 OPT| **************************************************************************
 OPT| Step number                                                              1
 OPT| Optimization method                                                  LBFGS
 OPT| Total energy [hartree]                                    -6674.0871897011
 OPT| Effective energy change [hartree]                           -40.0091117895
 OPT| Decrease in energy                                                     YES
 OPT| Used time [s]                                                     7406.332
 OPT|
 OPT| Maximum step size                                             0.4724315332
 OPT| Convergence limit for maximum step size                       0.0030000000
 OPT| Maximum step size is converged                                          NO
 OPT|
 OPT| RMS step size                                                 0.1081715856
 OPT| Convergence limit for RMS step size                           0.0015000000
 OPT| RMS step size is converged                                              NO
 OPT|
 OPT| Maximum gradient                                              0.1763424471
 OPT| Convergence limit for maximum gradient                        0.0010000000
 OPT| Maximum gradient is converged                                           NO
 OPT|
 OPT| RMS gradient                                                  0.0253923512
 OPT| Convergence limit for RMS gradient                            0.0005000000
 OPT| RMS gradient is converged                                               NO
 OPT| **************************************************************************
 OPT| Estimated peak process memory after this step [MiB]                  12455

 --------------------------
 OPTIMIZATION STEP:      2
 --------------------------

 Number of electrons:                                                       2350
 Number of occupied orbitals:                                               1175
 Number of molecular orbitals:                                              1175

 Number of orbital functions:                                               4917
 Number of independent orbital functions:                                   4917

 Extrapolation method: ASPC


 SCF WAVEFUNCTION OPTIMIZATION

  ----------------------------------- OT ---------------------------------------
  Minimizer      : DIIS                : direct inversion
                                         in the iterative subspace
                                         using   7 DIIS vectors
                                         safer DIIS on
  Preconditioner : FULL_SINGLE_INVERSE : inversion of 
                                         H + eS - 2*(Sc)(c^T*H*c+const)(Sc)^T
  Precond_solver : DEFAULT
  stepsize       :    0.08000000                  energy_gap     :    0.08000000
  eps_taylor     :   0.10000E-15                  max_taylor     :             4
  ----------------------------------- OT ---------------------------------------

  Step     Update method      Time    Convergence         Total energy    Change
  ------------------------------------------------------------------------------
     1 OT DIIS     0.80E-01   18.8     0.00538625     -6663.2546864951 -6.66E+03
     2 OT DIIS     0.80E-01   12.7     0.00361488     -6670.4777568642 -7.22E+00
     3 OT DIIS     0.80E-01   13.3     0.00391590     -6671.5237228488 -1.05E+00
     4 OT DIIS     0.80E-01   13.0     0.00158341     -6673.2361129131 -1.71E+00
     5 OT DIIS     0.80E-01   13.1     0.00141939     -6673.8334716459 -5.97E-01
     6 OT DIIS     0.80E-01   13.0     0.00111708     -6674.0207236921 -1.87E-01
     7 OT DIIS     0.80E-01   12.8     0.00084309     -6674.0899997808 -6.93E-02
     8 OT DIIS     0.80E-01   12.8     0.00043538     -6674.1206891746 -3.07E-02
     9 OT DIIS     0.80E-01   12.6     0.00026200     -6674.1337067815 -1.30E-02
    10 OT DIIS     0.80E-01   12.6     0.00019938     -6674.1394213222 -5.71E-03
    11 OT DIIS     0.80E-01   12.8     0.00018449     -6674.1424654370 -3.04E-03
    12 OT DIIS     0.80E-01   12.9     0.00012059     -6674.1461105023 -3.65E-03
    13 OT DIIS     0.80E-01   12.8     0.00010583     -6674.1479621083 -1.85E-03
    14 OT DIIS     0.80E-01   12.7     0.00009394     -6674.1496184605 -1.66E-03
    15 OT DIIS     0.80E-01   12.9     0.00009420     -6674.1505697641 -9.51E-04
    16 OT DIIS     0.80E-01   13.1     0.00008761     -6674.1514016631 -8.32E-04
    17 OT DIIS     0.80E-01   13.0     0.00006392     -6674.1521102364 -7.09E-04
    18 OT DIIS     0.80E-01   12.6     0.00005771     -6674.1527053661 -5.95E-04
    19 OT DIIS     0.80E-01   12.9     0.00006496     -6674.1530747080 -3.69E-04
    20 OT DIIS     0.80E-01   12.7     0.00005329     -6674.1532586134 -1.84E-04
    21 OT DIIS     0.80E-01   13.2     0.00004484     -6674.1534864500 -2.28E-04
    22 OT DIIS     0.80E-01   12.9     0.00004363     -6674.1536188570 -1.32E-04
    23 OT DIIS     0.80E-01   12.8     0.00003792     -6674.1537722683 -1.53E-04
    24 OT DIIS     0.80E-01   12.8     0.00003710     -6674.1538141347 -4.19E-05
    25 OT DIIS     0.80E-01   12.6     0.00002869     -6674.1538833141 -6.92E-05
    26 OT DIIS     0.80E-01   12.9     0.00002275     -6674.1539839835 -1.01E-04
    27 OT DIIS     0.80E-01   12.7     0.00002406     -6674.1540370380 -5.31E-05
    28 OT DIIS     0.80E-01   12.5     0.00002241     -6674.1540901459 -5.31E-05
    29 OT DIIS     0.80E-01   12.6     0.00001979     -6674.1541487297 -5.86E-05
    30 OT DIIS     0.80E-01   13.0     0.00002088     -6674.1541978348 -4.91E-05
    31 OT DIIS     0.80E-01   13.0     0.00001956     -6674.1542602238 -6.24E-05
    32 OT DIIS     0.80E-01   12.9     0.00002193     -6674.1542975778 -3.74E-05
    33 OT DIIS     0.80E-01   12.8     0.00001946     -6674.1543306844 -3.31E-05
    34 OT DIIS     0.80E-01   12.6     0.00001648     -6674.1543793849 -4.87E-05
    35 OT DIIS     0.80E-01   12.9     0.00001745     -6674.1544004051 -2.10E-05
    36 OT DIIS     0.80E-01   13.0     0.00001603     -6674.1544314612 -3.11E-05
    37 OT DIIS     0.80E-01   12.7     0.00001413     -6674.1544523451 -2.09E-05
    38 OT DIIS     0.80E-01   12.9     0.00001375     -6674.1544711979 -1.89E-05
    39 OT DIIS     0.80E-01   12.7     0.00001210     -6674.1544941273 -2.29E-05
    40 OT DIIS     0.80E-01   12.8     0.00001287     -6674.1545175328 -2.34E-05
    41 OT DIIS     0.80E-01   12.9     0.00001202     -6674.1545359794 -1.84E-05
    42 OT DIIS     0.80E-01   12.9     0.00001119     -6674.1545596947 -2.37E-05
    43 OT DIIS     0.80E-01   12.6     0.00001232     -6674.1545765387 -1.68E-05
    44 OT DIIS     0.80E-01   12.6     0.00001183     -6674.1546030661 -2.65E-05
    45 OT DIIS     0.80E-01   12.7     0.00001185     -6674.1546170307 -1.40E-05
    46 OT DIIS     0.80E-01   12.8     0.00001175     -6674.1546301482 -1.31E-05
    47 OT DIIS     0.80E-01   12.7     0.00001027     -6674.1546409542 -1.08E-05
    48 OT DIIS     0.80E-01   13.0     0.00001040     -6674.1546575080 -1.66E-05
    49 OT DIIS     0.80E-01   12.7     0.00000941     -6674.1546686826 -1.12E-05
    50 OT DIIS     0.80E-01   13.0     0.00000855     -6674.1546775705 -8.89E-06
    51 OT DIIS     0.80E-01   12.8     0.00000877     -6674.1546867887 -9.22E-06
    52 OT DIIS     0.80E-01   12.8     0.00000815     -6674.1547022576 -1.55E-05
    53 OT DIIS     0.80E-01   12.7     0.00000862     -6674.1547118650 -9.61E-06
    54 OT DIIS     0.80E-01   12.5     0.00000866     -6674.1547227110 -1.08E-05
    55 OT DIIS     0.80E-01   12.8     0.00000823     -6674.1547305247 -7.81E-06
    56 OT DIIS     0.80E-01   12.8     0.00000856     -6674.1547449910 -1.45E-05
    57 OT DIIS     0.80E-01   12.9     0.00000817     -6674.1547564135 -1.14E-05
    58 OT DIIS     0.80E-01   12.7     0.00000770     -6674.1547607232 -4.31E-06
    59 OT DIIS     0.80E-01   13.0     0.00000798     -6674.1547676248 -6.90E-06
    60 OT DIIS     0.80E-01   12.9     0.00000700     -6674.1547776769 -1.01E-05
    61 OT DIIS     0.80E-01   12.9     0.00000719     -6674.1547829692 -5.29E-06
    62 OT DIIS     0.80E-01   13.3     0.00000682     -6674.1547895839 -6.61E-06
    63 OT DIIS     0.80E-01   13.1     0.00000638     -6674.1547933468 -3.76E-06
    64 OT DIIS     0.80E-01   13.0     0.00000634     -6674.1548019234 -8.58E-06
    65 OT DIIS     0.80E-01   13.0     0.00000622     -6674.1548105820 -8.66E-06
    66 OT DIIS     0.80E-01   12.7     0.00000619     -6674.1548146692 -4.09E-06
    67 OT DIIS     0.80E-01   13.0     0.00000668     -6674.1548222978 -7.63E-06
    68 OT DIIS     0.80E-01   12.8     0.00000613     -6674.1548298116 -7.51E-06
    69 OT DIIS     0.80E-01   12.9     0.00000660     -6674.1548347559 -4.94E-06
    70 OT DIIS     0.80E-01   12.8     0.00000632     -6674.1548404689 -5.71E-06
    71 OT DIIS     0.80E-01   12.8     0.00000592     -6674.1548426063 -2.14E-06
    72 OT DIIS     0.80E-01   12.7     0.00000566     -6674.1548476333 -5.03E-06
    73 OT DIIS     0.80E-01   12.8     0.00000525     -6674.1548533928 -5.76E-06
    74 OT DIIS     0.80E-01   12.9     0.00000503     -6674.1548553955 -2.00E-06
    75 OT DIIS     0.80E-01   12.6     0.00000517     -6674.1548605407 -5.15E-06
    76 OT DIIS     0.80E-01   13.1     0.00000484     -6674.1548647908 -4.25E-06
    77 OT DIIS     0.80E-01   12.8     0.00000516     -6674.1548690931 -4.30E-06
    78 OT DIIS     0.80E-01   13.1     0.00000515     -6674.1548741294 -5.04E-06
    79 OT DIIS     0.80E-01   12.7     0.00000519     -6674.1548773388 -3.21E-06
    80 OT DIIS     0.80E-01   12.5     0.00000519     -6674.1548812457 -3.91E-06
    81 OT DIIS     0.80E-01   12.7     0.00000490     -6674.1548860702 -4.82E-06
    82 OT DIIS     0.80E-01   12.8     0.00000470     -6674.1548877705 -1.70E-06
    83 OT DIIS     0.80E-01   12.9     0.00000481     -6674.1548917396 -3.97E-06
    84 OT DIIS     0.80E-01   13.0     0.00000432     -6674.1548937303 -1.99E-06
    85 OT DIIS     0.80E-01   12.6     0.00000433     -6674.1548963741 -2.64E-06
    86 OT DIIS     0.80E-01   12.8     0.00000414     -6674.1548994270 -3.05E-06
    87 OT DIIS     0.80E-01   12.9     0.00000412     -6674.1549019978 -2.57E-06
    88 OT DIIS     0.80E-01   12.8     0.00000412     -6674.1549045486 -2.55E-06
    89 OT DIIS     0.80E-01   12.8     0.00000403     -6674.1549079701 -3.42E-06
    90 OT DIIS     0.80E-01   12.7     0.00000402     -6674.1549105653 -2.60E-06
[...]
 flops    23 x    23 x    32          99746682624       0.0%      0.0%    100.0%     
 flops    14 x     9 x    23         124787138112       0.0%      0.0%    100.0%     
 flops     9 x    14 x    23         124787138112       0.0%      0.0%    100.0%     
 flops    23 x    23 x    13         154935509040       0.0%      0.0%    100.0%     
 flops    13 x    23 x    23         193669386300       0.0%      0.0%    100.0%     
 flops     9 x    23 x     9         298773453312       0.0%      0.0%    100.0%     
 flops    14 x    14 x    23         319478182296       0.0%      0.0%    100.0%     
 flops     9 x    13 x    23         386696915280       0.0%      0.0%    100.0%     
 flops    13 x     9 x    23         387454851576       0.0%      0.0%    100.0%     
 flops    14 x    23 x     9         755232895872       0.0%      0.0%    100.0%     
 flops     9 x    23 x    14         755232895872       0.0%      0.0%    100.0%     
 flops    13 x    14 x    23         947865834552       0.0%      0.0%    100.0%     
 flops    14 x    13 x    23         950409859308       0.0%      0.0%    100.0%     
 flops    32 x    23 x     9         984986044416       0.0%      0.0%    100.0%     
 flops    23 x    32 x     9         984986044416       0.0%      0.0%    100.0%     
 flops     9 x    32 x    23        1228940439552       0.0%      0.0%    100.0%     
 flops     9 x    23 x    32        1228940439552       0.0%      0.0%    100.0%     
 flops    14 x    23 x    14        1909060931232       0.0%      0.0%    100.0%     
 flops    13 x    13 x    23        2095376867610       0.0%      0.0%    100.0%     
 flops    13 x    23 x     9        2343827012670       0.0%      0.0%    100.0%     
 flops     9 x    23 x    13        2343827012670       0.0%      0.0%    100.0%     
 flops    32 x    23 x    14        2489825834496       0.0%      0.0%    100.0%     
 flops    23 x    32 x    14        2489825834496       0.0%      0.0%    100.0%     
 flops     9 x     9 x    32        2524122445824       0.0%      0.0%    100.0%     
 flops    14 x    32 x    23        3106488333312       0.0%      0.0%    100.0%     
 flops    14 x    23 x    32        3106488333312       0.0%      0.0%    100.0%     
 flops    32 x    32 x    23        4996007755776       0.0%      0.0%    100.0%     
 flops    32 x    23 x    32        4996007755776       0.0%      0.0%    100.0%     
 flops    23 x    32 x    32        4996007755776       0.0%      0.0%    100.0%     
 flops    14 x    23 x    13        5800626900432       0.0%      0.0%    100.0%     
 flops    13 x    23 x    14        5800626900432       0.0%      0.0%    100.0%     
 flops    14 x     9 x    32        6250207961088       0.0%      0.0%    100.0%     
 flops     9 x    14 x    32        6250207961088       0.0%      0.0%    100.0%     
 flops    32 x    23 x    13        7736244557184       0.0%      0.0%    100.0%     
 flops    23 x    32 x    13        7736244557184       0.0%      0.0%    100.0%     
 flops    13 x    32 x    23        9652303035648       0.0%      0.0%    100.0%     
 flops    13 x    23 x    32        9652303035648       0.0%      0.0%    100.0%     
 flops    13 x    23 x    13       14362725436774       0.0%      0.0%    100.0%     
 flops     9 x    32 x     9       14964652965888       0.0%      0.0%    100.0%     
 flops    14 x    14 x    32       16001689826304       0.0%      0.0%    100.0%     
 flops     9 x    13 x    32       19368471582720       0.0%      0.0%    100.0%     
 flops    13 x     9 x    32       19406434305024       0.0%      0.0%    100.0%     
 flops    14 x    32 x     9       37827317219328       0.0%      0.0%    100.0%     
 flops     9 x    32 x    14       37827317219328       0.0%      0.0%    100.0%     
 flops    13 x    14 x    32       47475714843648       0.0%      0.0%    100.0%     
 flops    14 x    13 x    32       47603137300992       0.0%      0.0%    100.0%     
 flops    32 x    32 x     9       49339205222400       0.0%      0.0%    100.0%     
 flops     9 x    32 x    32       61562390446080       0.0%      0.0%    100.0%     
 flops    14 x    32 x    14       95619051859968       0.0%      0.0%    100.0%     
 flops    13 x    13 x    32      104951050064640       0.0%      0.0%    100.0%     
 flops    13 x    32 x     9      117395161678080       0.0%      0.0%    100.0%     
 flops     9 x    32 x    13      117395161678080       0.0%      0.0%    100.0%     
 flops    32 x    32 x    14      124718546534400       0.0%      0.0%    100.0%     
 flops    14 x    32 x    32      155616042516480       0.0%      0.0%    100.0%     
 flops    32 x    32 x    32      250234823245824       0.0%      0.0%    100.0%     
 flops    14 x    32 x    13      290535747360768       0.0%      0.0%    100.0%     
 flops    13 x    32 x    14      290535747360768       0.0%      0.0%    100.0%     
 flops    32 x    32 x    13      387518341017600       0.0%      0.0%    100.0%     
 flops    13 x    32 x    32      483521274961920       0.0%      0.0%    100.0%     
 flops    13 x    32 x    13      719385204485376       0.0%      0.0%    100.0%     
 flops inhomo. stacks                           0       0.0%      0.0%      0.0%
 flops total                         3.609776E+15       0.0%      0.0%    100.0%
 flops max/rank                      3.609776E+15       0.0%      0.0%    100.0%
 matmuls inhomo. stacks                         0       0.0%      0.0%      0.0%
 matmuls total                       254777850635       0.0%      0.0%    100.0%
 number of processed stacks              36351133       0.0%      0.0%    100.0%
 average stack size                                     0.0       0.0    7008.8
 marketing flops                     4.222724E+15
 -------------------------------------------------------------------------------
 # multiplications                         225520
 max memory usage/rank              13.990281E+09
 # max total images/rank                        1
 # max 3D layers                                1
 # MPI messages exchanged                       0
 -------------------------------------------------------------------------------
 -                                                                             -
 -                      DBCSR MESSAGE PASSING PERFORMANCE                      -
 -                                                                             -
 -------------------------------------------------------------------------------
 ROUTINE             CALLS      AVE VOLUME [Bytes]
 MP_Bcast               69                     12.
 MP_Allreduce       811938                      9.
 MP_Alltoall        725994                4840706.
 MP_ISend           901012                 345859.
 MP_IRecv           901012                 345859.
 -------------------------------------------------------------------------------

 -------------------------------------------------------------------------------
 -                                                                             -
 -                                DBM STATISTICS                               -
 -                                                                             -
 -------------------------------------------------------------------------------
    M  x    N  x    K                                          COUNT     PERCENT
 -------------------------------------------------------------------------------

 -------------------------------------------------------------------------------
 -                                                                             -
 -                                GRID STATISTICS                              -
 -                                                                             -
 -------------------------------------------------------------------------------
 LP    KERNEL             BACKEND                              COUNT     PERCENT
 2     collocate ortho    GPU                              399513184       3.16%
 2     integrate ortho    GPU                              391569118       3.09%
 5     integrate ortho    GPU                               69394114       0.55%
 0     collocate general  CPU                                  85914       0.00%
 1     integrate general  CPU                                  85914       0.00%
 4     collocate ortho    GPU                             3471966881      27.42%
 4     integrate ortho    GPU                             3451244984      27.26%
 3     collocate ortho    GPU                             2459024947      19.42%
 3     integrate ortho    GPU                             2418296796      19.10%
 -------------------------------------------------------------------------------

 MEMORY| Estimated peak process memory [MiB]                               13236

 -------------------------------------------------------------------------------
 -                                                                             -
 -                         MESSAGE PASSING PERFORMANCE                         -
 -                                                                             -
 -------------------------------------------------------------------------------

 ROUTINE             CALLS      AVE VOLUME [Bytes]
 MP_Group                4
 MP_Bcast           342099                   6642.
 MP_Allreduce       857223                   6215.
 MP_Sync              5350
 -------------------------------------------------------------------------------


 -------------------------------------------------------------------------------
 -                                                                             -
 -                           R E F E R E N C E S                               -
 -                                                                             -
 -------------------------------------------------------------------------------
 
 CP2K version 2025.1, the CP2K developers group (2025).
 CP2K is freely available from https://www.cp2k.org/ .
 
 T. D. Kuehne, M. Iannuzzi, M. Del Ben, V. V. Rybkin, P. Seewald, F. Stein, T. 
 Laino, R. Z. Khaliullin, O. Schuett, F. Schiffmann, D. Golze, J. Wilhelm, S. 
 Chulkov, M. H. Bani-Hashemian, V. Weber, U. Borstnik, M. Taillefumier, A. S. 
 Jakobovits, A. Lazzaro, H. Pabst, T. Mueller, R. Schade, M. Guidon, S. 
 Andermatt, N. Holmberg, G. K. Schenter, A. Hehn, A. Bussy, F. Belleflamme, G. 
 Tabacchi, A. Gloess, M. Lass, I. Bethune, C. J. Mundy, C. Plessl, M. Watkins, 
 J. VandeVondele, M. Krack, J. Hutter.
 J. Chem. Phys. 152, 194103 (2020).
 CP2K: An electronic structure and molecular dynamics software package - 
 Quickstep: Efficient and accurate electronic structure calculations.
 https://doi.org/10.1063/5.0007045

 E. Caldeweyher, J. M. Mewes, S. Ehlert, S. Grimme.
 Phys. Chem. Chem. Phys. 22, 8499-8512 (2020).
 Extension and evaluation of the D4 London-dispersion model for periodic 
 systems.
 https://doi.org/10.1039/d0cp00502a

 E. Caldeweyher, S. Ehlert, A. Hansen, H. Neugebauer, S. Spicher, C. Bannwarth, 
 S. Grimme.
 J. Chem. Phys. 150, 154122 (2019).
 A generally applicable atomic-charge dependent London dispersion correction.
 https://doi.org/10.1063/1.5090222

 E. Caldeweyher, C. Bannwarth, S. Grimme.
 J. Chem. Phys. 147, 034112 (2017).
 Extension of the D3 dispersion coefficient model.
 https://doi.org/10.1063/1.4993215

 O. Schuett, P. Messmer, J. Hutter, J. VandeVondele.
 Electronic Structure Calculations on Graphics Processing Units, 173-190 (2016).
 GPU-Accelerated Sparse Matrix-Matrix Multiplication for Linear Scaling Density 
 Functional Theory.
 https://doi.org/10.1002/9781118670712.ch8

 A. Heinecke, G. Henry, M. Hutchinson, H. Pabst.
 Proceedings of Intl. Supercomputing Conference, 981-991 (2016).
 LIBXSMM: Accelerating Small Matrix Multiplications by Runtime Code Generation.
 https://doi.org/10.1109/SC.2016.83

 J. Hutter, M. Iannuzzi, F. Schiffmann, J. VandeVondele.
 WIREs Comput Mol Sci. 4, 15-25 (2014).
 CP2K: atomistic simulations of condensed matter systems.
 https://doi.org/10.1002/wcms.1159

 U. Borstnik, J. VandeVondele, V. Weber, J. Hutter.
 Parallel Comput. 40, 47-58 (2014).
 Sparse matrix multiplication: The distributed block-compressed sparse row 
 library.
 https://doi.org/10.1016/j.parco.2014.03.012

 A. Marek, V. Blum, R. Johanni, V. Havu, B. Lang, T. Auckenthaler, A. Heinecke, 
 H. Bungartz, H. Lederer.
 J. Phys. Condens. Matter 26, 213201 (2014).
 The ELPA library: scalable parallel eigenvalue solutions for electronic 
 structure theory and computational science.
 https://doi.org/10.1088/0953-8984/26/21/213201

 J. VandeVondele, J. Hutter.
 J. Chem. Phys. 127, 114105 (2007).
 Gaussian basis sets for accurate calculations on molecular systems in gas and 
 condensed phases.
 https://doi.org/10.1063/1.2770708

 T. D. Khne, M. Krack, F. R. Mohamed, M. Parrinello.
 Phys. Rev. Lett. 98, 066401 (2007).
 Efficient and accurate Car-Parrinello-like approach to Born-Oppenheimer 
 molecular dynamics.
 https://doi.org/10.1103/PhysRevLett.98.066401

 J. VandeVondele, M. Krack, F. Mohamed, M. Parrinello, T. Chassaing, J. Hutter.
 Comput. Phys. Commun. 167, 103-128 (2005).
 QUICKSTEP: Fast and accurate density functional calculations using a mixed 
 Gaussian and plane waves approach.
 https://doi.org/10.1016/j.cpc.2004.12.014

 M. Krack.
 Theor. Chem. Acc. 114, 145-152 (2005).
 Pseudopotentials for H to Kr optimized for gradient-corrected 
 exchange-correlation functionals.
 https://doi.org/10.1007/s00214-005-0655-y

 M. Frigo, S. G. Johnson.
 Proc. IEEE 93, 216-231 (2005).
 The design and implementation of FFTW3.
 https://doi.org/10.1109/JPROC.2004.840301

 J. Kolafa.
 J. Comput. Chem. 25, 335-342 (2004).
 Time-reversible always stable predictor-corrector method for molecular dynamics 
 of polarizable molecules.
 https://doi.org/10.1002/jcc.10385

 J. VandeVondele, J. Hutter.
 J. Chem. Phys. 118, 4365-4369 (2003).
 An efficient orbital transformation method for electronic structure 
 calculations.
 https://doi.org/10.1063/1.1543154

 C. Hartwigsen, S. Goedecker, J. Hutter.
 Phys. Rev. B 58, 3641-3662 (1998).
 Relativistic separable dual-space Gaussian pseudopotentials from H to Rn.
 https://doi.org/10.1103/PhysRevB.58.3641

 G. Lippert, J. Hutter, M. Parrinello.
 Mol. Phys. 92, 477-487 (1997).
 A hybrid Gaussian and plane wave density functional scheme.
 https://doi.org/10.1080/002689797170220

 S. Goedecker, M. Teter, J. Hutter.
 Phys. Rev. B 54, 1703-1710 (1996).
 Separable dual-space Gaussian pseudopotentials.
 https://doi.org/10.1103/PhysRevB.54.1703

 J. P. Perdew, K. Burke, M. Ernzerhof.
 Phys. Rev. Lett. 77, 3865-3868 (1996).
 Generalized gradient approximation made simple.
 https://doi.org/10.1103/PhysRevLett.77.3865

 R. H. Byrd, P. H. Lu, J. Nocedal, C. Y. Zhu.
 SIAM J. Sci. Comput. 16, 1190-1208 (1995).
 A Limited Memory Algorithm for Bound Constrained Optimization.
 https://doi.org/10.1137/0916069


 -------------------------------------------------------------------------------
 -                                                                             -
 -                                T I M I N G                                  -
 -                                                                             -
 -------------------------------------------------------------------------------
 SUBROUTINE                       CALLS  ASD         SELF TIME        TOTAL TIME
                                MAXIMUM       AVERAGE  MAXIMUM  AVERAGE  MAXIMUM
 CP2K                                 1  1.0      1.1      1.1 143491.2 143491.2
 cp_geo_opt                           1  2.0      0.0      0.0 143478.7 143478.7
 geoopt_lbfgs                         1  3.0      0.2      0.2 143478.7 143478.7
 cp_opt_gopt_step                   200  4.0      0.2      0.2 143477.5 143477.5
 cp_eval_at                         222  5.0      0.0      0.0 143466.7 143466.7
 qs_forces                          222  6.0      0.1      0.1 143466.6 143466.6
 qs_energies                        222  7.0      0.1      0.1 140363.6 140363.6
 scf_env_do_scf                     222  8.0      0.1      0.1 137337.4 137337.4
 scf_env_do_scf_inner_loop        10790  9.0     17.0     17.0 133247.4 133247.4
 rebuild_ks_matrix                11012 10.9      0.1      0.1  82849.0  82849.0
 qs_ks_build_kohn_sham_matrix     11012 11.9      3.7      3.7  82848.8  82848.8
 qs_ks_update_qs_env              11057 10.0      0.3      0.3  80735.6  80735.6
 sum_up_and_integrate             11012 12.9      0.7      0.7  53682.9  53682.9
 integrate_v_rspace               11012 13.9    154.3    154.3  53482.1  53482.1
 grid_integrate_task_list         11012 14.9  51423.5  51423.5  51423.5  51423.5
 qs_rho_update_rho_low            11012 10.0      0.1      0.1  35552.6  35552.6
 calculate_rho_elec               11012 11.0   1121.3   1121.3  35552.5  35552.5
 grid_collocate_task_list         11012 12.0  31137.4  31137.4  31137.4  31137.4
 qs_vxc_create                    11012 12.9      0.4      0.4  19825.6  19825.6
 xc_vxc_pw_create                 11012 13.9   1256.6   1256.6  19825.2  19825.2
 qs_scf_new_mos                   10790 10.0      0.1      0.1  18451.4  18451.4
 qs_scf_loop_do_ot                10790 11.0      0.1      0.1  18451.3  18451.3
 ot_scf_mini                      10790 12.0      0.7      0.7  17082.6  17082.6
 dbcsr_multiply_generic          225520 15.1     74.8     74.8  16731.7  16731.7
 xc_rho_set_and_dset_create       11012 14.9   1626.1   1626.1  11882.5  11882.5
 fft_wrap_pw1pw2                 187426 15.3      7.6      7.6  10821.3  10821.3
 multiply_cannon                 225520 16.1    526.6    526.6  10420.5  10420.5
 fft_wrap_pw1pw2_200             121354 16.7      0.8      0.8  10131.9  10131.9
 ot_mini                          10790 13.0      0.1      0.1   9589.4   9589.4
 multiply_cannon_loop            225520 17.1    740.8    740.8   9070.4   9070.4
 xc_pw_derive                     66072 15.9      1.7      1.7   9062.8   9062.8
 multiply_cannon_multrec         225520 18.1   4922.5   4922.5   7331.9   7331.9
 qs_ot_get_derivative             10790 14.0      0.2      0.2   6746.9   6746.9
 xc_pw_divergence                 11012 14.9      0.9      0.9   6332.2   6332.2
 pw_poisson_solve                 11012 12.9      0.8      0.8   5693.6   5693.6
 pw_gpu_c1dr3d_3d                 99108 17.6   5406.3   5406.3   5406.3   5406.3
 pw_gpu_r3dc1d_3d                 88318 16.8   5406.1   5406.1   5406.1   5406.1
 xc_functional_eval               11012 15.9      0.3      0.3   5363.0   5363.0
 pbe_lda_eval                     11012 16.9   5362.7   5362.7   5362.7   5362.7
 make_m2s                        451040 16.1      7.4      7.4   5142.9   5142.9
 make_images                     451040 17.1   1436.1   1436.1   4893.1   4893.1
 pw_derive                        99108 16.3   4359.4   4359.4   4359.4   4359.4
 qs_ot_get_p                      11057 13.0      0.1      0.1   4212.4   4212.4
 init_scf_loop                      267  9.0      0.0      0.0   4022.9   4022.9
 density_rs2pw                    11012 12.0      1.8      1.8   3293.7   3293.7
 qs_ot_p2m_diag                    5346 14.0    168.1    168.1   3064.3   3064.3
 pw_integral_ab_c1d_c1d_gs        11012 13.9   3056.2   3056.2   3056.2   3056.2
 -------------------------------------------------------------------------------

 The number of warnings for this run is : 0
 
 -------------------------------------------------------------------------------
  **** **** ******  **  PROGRAM ENDED AT                 2025-10-06 07:16:47.773
 ***** ** ***  *** **   PROGRAM RAN ON                              e6f2d0e0e03b
 **    ****   ******    PROGRAM RAN BY                                 <unknown>
 ***** **    ** ** **   PROGRAM PROCESS ID                                   614
  **** **  *******  **  PROGRAM STOPPED IN                             /mnt/cp2k
