 DBCSR| CPU Multiplication driver                                           XSMM (U)
 DBCSR| Multrec recursion limit                                              512 (U)
 DBCSR| Multiplication stack size                                          30000 (D)
 DBCSR| Maximum elements for images                                    UNLIMITED (U)
 DBCSR| Multiplicative factor virtual images                                   1 (U)
 DBCSR| Use multiplication densification                                       F (D)
 DBCSR| Multiplication size stacks                                             3 (U)
 DBCSR| Use memory pool for CPU allocation                                     F (U)
 DBCSR| Number of 3D layers                                               SINGLE (U)
 DBCSR| Use MPI memory allocation                                              F (U)
 DBCSR| Use RMA algorithm                                                      F (U)
 DBCSR| Use Communication thread                                               T (U)
 DBCSR| Communication thread load                                             30 (D)
 DBCSR| MPI: My process id                                                     0
 DBCSR| MPI: Number of processes                                               1
 DBCSR| OMP: Current number of threads                                        16
 DBCSR| OMP: Max number of threads                                            16
 DBCSR| ACC: Number of devices/node                                            1
 DBCSR| ACC: Number of stack-buffers per thread                                8 (U)
 DBCSR| ACC: Avoid driver after busy                                           F (U)
 DBCSR| ACC: Process inhomogeneous stacks                                      T (U)
 DBCSR| ACC: Min. flop for processing                                          0 (U)
 DBCSR| ACC: Use G2G algorithm                                                 F (D)
 DBCSR| ACC: Min. flop for sorting                                          4000 (U)
 DBCSR| ACC: Number of binning bins                                         4096 (U)
 DBCSR| ACC: Size of binning bins                                             16 (U)
 DBCSR| ACC: GPU backend is enabled                                            T (D)
 DBCSR| Split modifier for TAS multiplication algorithm                  1.0E+00 (U)


  **** **** ******  **  PROGRAM STARTED AT               2025-10-17 20:41:50.968
 ***** ** ***  *** **   PROGRAM STARTED ON                          e919e75df916
 **    ****   ******    PROGRAM STARTED BY                             <unknown>
 ***** **    ** ** **   PROGRAM PROCESS ID                                   614
  **** **  *******  **  PROGRAM STARTED IN                             /mnt/cp2k

 CP2K| version string:                                       CP2K version 2025.1
 CP2K| source code revision number:                                  git:9635df4
 CP2K| cp2kflags: omp libint fftw3 libxc libgrpp pexsi elpa elpa_nvidia_gpu para
 CP2K|            llel scalapack cosma quip xsmm dbcsr_acc plumed2 spglib libdft
 CP2K|            td4 sirius libvori libbqb offload_cuda spla_gemm_offloading li
 CP2K|            ibvdwxc hdf5 trexio
 CP2K| is freely available from                            https://www.cp2k.org/
 CP2K| Program compiled at                          Tue Jan 14 21:07:27 UTC 2025
 CP2K| Program compiled on                                          eb3a76499499
 CP2K| Program compiled for                                           local_cuda
 CP2K| Data directory path                                        /opt/cp2k/data
 CP2K| Input file name                                           HAP_002_opt.inp

 GLOBAL| Force Environment number                                              1
 GLOBAL| Basis set file name                                        BASIS_MOLOPT
 GLOBAL| Potential file name                                      GTH_POTENTIALS
 GLOBAL| MM Potential file name                                     MM_POTENTIAL
 GLOBAL| Coordinate file name                                  HAP_002_clean.xyz
 GLOBAL| Method name                                                        CP2K
 GLOBAL| Project name                                                HAP_002_opt
 GLOBAL| Run type                                                        GEO_OPT
 GLOBAL| FFT library                                                       FFTW3
 GLOBAL| Diagonalization library                                            ELPA
 GLOBAL| DGEMM library                                                      SPLA
 GLOBAL| Minimum number of eigenvectors for ELPA usage                        16
 GLOBAL| Orthonormality check for eigenvectors                          DISABLED
 GLOBAL| Matrix multiplication library                                     COSMA
 GLOBAL| All-to-all communication in single precision                          F
 GLOBAL| FFTs using library dependent lengths                                  F
 GLOBAL| Grid backend                                                       AUTO
 GLOBAL| Global print level                                                  LOW
 GLOBAL| MPI I/O enabled                                                       T
 GLOBAL| Total number of message passing processes                             1
 GLOBAL| Number of threads for this process                                   16
 GLOBAL| This output is from process                                           0
 GLOBAL| OpenMP stack size per thread (OMP_STACKSIZE)                        16M
 GLOBAL| CPU model name                              Intel(R) Core(TM) i7-14700K
 GLOBAL| CPUID                                                              1002
 GLOBAL| Compiled for CPUID                                                    0

 *** HINT in environment.F:928 :: The compiler target flags (generic) used ***
 *** to build this binary cannot exploit all extensions of this CPU model  ***
 *** (x86_avx2). Consider compiler target flags as part of FCFLAGS and     ***
 *** CFLAGS (ARCH file).                                                   ***


 MEMORY| system memory details [Kb]
 MEMORY|                        rank 0           min           max       average
 MEMORY| MemTotal             32768664      32768664      32768664      32768664
 MEMORY| MemFree              30542580      30542580      30542580      30542580
 MEMORY| Buffers                194228        194228        194228        194228
 MEMORY| Cached                1024012       1024012       1024012       1024012
 MEMORY| Slab                   121920        121920        121920        121920
 MEMORY| SReclaimable            40504         40504         40504         40504
 MEMORY| MemLikelyFree        31801324      31801324      31801324      31801324


 GENERATE|  Preliminary Number of Bonds generated:                             0
 GENERATE|  Achieved consistency in connectivity generation.

 *******************************************************************************
 *******************************************************************************
 **                                                                           **
 **     #####                         ##              ##                      **
 **    ##   ##            ##          ##              ##                      **
 **   ##     ##                       ##            ######                    **
 **   ##     ##  ##   ##  ##   #####  ##  ##   ####   ##    #####    #####    **
 **   ##     ##  ##   ##  ##  ##      ## ##   ##      ##   ##   ##  ##   ##   **
 **   ##  ## ##  ##   ##  ##  ##      ####     ###    ##   ######   ######    **
 **    ##  ###   ##   ##  ##  ##      ## ##      ##   ##   ##       ##        **
 **     #######   #####   ##   #####  ##  ##  ####    ##    #####   ##        **
 **           ##                                                    ##        **
 **                                                                           **
 **                                                ... make the atoms dance   **
 **                                                                           **
 **            Copyright (C) by CP2K developers group (2000-2025)             **
 **                      J. Chem. Phys. 152, 194103 (2020)                    **
 **                                                                           **
 *******************************************************************************


 TOTAL NUMBERS AND MAXIMUM NUMBERS

  Total number of            - Atomic kinds:                                   5
                             - Atoms:                                        387
                             - Shell sets:                                   387
                             - Shells:                                      2015
                             - Primitive Cartesian functions:               2031
                             - Cartesian basis functions:                   5338
                             - Spherical basis functions:                   4983

  Maximum angular momentum of- Orbital basis functions:                        2
                             - Local part of the GTH pseudopotential:          2
                             - Non-local part of the GTH pseudopotential:      3


 SCF PARAMETERS         Density guess:                                    ATOMIC
                        --------------------------------------------------------
                        max_scf:                                             100
                        max_scf_history:                                       0
                        max_diis:                                              4
                        --------------------------------------------------------
                        eps_scf:                                        1.00E-06
                        eps_scf_history:                                0.00E+00
                        eps_diis:                                       1.00E-01
                        eps_eigval:                                     1.00E-05
                        --------------------------------------------------------
                        level_shift [a.u.]:                             0.000000
                        --------------------------------------------------------
                        Outer loop SCF in use 
                        No variables optimised in outer loop
                        eps_scf                                         1.00E-06
                        max_scf                                               50
                        No outer loop optimization
                        step_size                                       5.00E-01

 *******************************************************************************
 ***                     STARTING GEOMETRY OPTIMIZATION                      ***
 ***                                 L-BFGS                                  ***
 *******************************************************************************

 --------------------------
 OPTIMIZATION STEP:      1
 --------------------------

 Number of electrons:                                                       2432
 Number of occupied orbitals:                                               1216
 Number of molecular orbitals:                                              1216

 Number of orbital functions:                                               4983
 Number of independent orbital functions:                                   4983

 Extrapolation method: initial_guess


 SCF WAVEFUNCTION OPTIMIZATION

  ----------------------------------- OT ---------------------------------------
  Minimizer      : DIIS                : direct inversion
                                         in the iterative subspace
                                         using   7 DIIS vectors
                                         safer DIIS on
  Preconditioner : FULL_SINGLE_INVERSE : inversion of 
                                         H + eS - 2*(Sc)(c^T*H*c+const)(Sc)^T
  Precond_solver : DEFAULT
  stepsize       :    0.08000000                  energy_gap     :    0.08000000
  eps_taylor     :   0.10000E-15                  max_taylor     :             4
  ----------------------------------- OT ---------------------------------------

  Step     Update method      Time    Convergence         Total energy    Change
  ------------------------------------------------------------------------------
     1 OT DIIS     0.80E-01   20.6     0.01640244     -6701.4246188685 -6.70E+03
     2 OT DIIS     0.80E-01   18.3     0.01044293     -6773.6643037914 -7.22E+01
     3 OT DIIS     0.80E-01   41.5     0.00764949     -6804.9681175916 -3.13E+01
     4 OT DIIS     0.80E-01   46.0     0.00784673     -6826.7484779795 -2.18E+01
     5 OT DIIS     0.80E-01   59.5     0.00448514     -6846.4714597250 -1.97E+01
     6 OT DIIS     0.80E-01   56.6     0.00352430     -6858.1854195229 -1.17E+01
     7 OT DIIS     0.80E-01   56.8     0.00274565     -6868.7141998228 -1.05E+01
     8 OT DIIS     0.80E-01   56.9     0.00222639     -6876.0576709189 -7.34E+00
     9 OT DIIS     0.80E-01   42.5     0.00171836     -6881.9553792846 -5.90E+00
    10 OT DIIS     0.80E-01   55.1     0.00137475     -6885.5466662551 -3.59E+00
    11 OT DIIS     0.80E-01   66.5     0.00109132     -6888.0828921170 -2.54E+00
    12 OT DIIS     0.80E-01   36.9     0.00088254     -6889.8229023164 -1.74E+00
    13 OT DIIS     0.80E-01   36.4     0.00072725     -6891.0349153412 -1.21E+00
    14 OT DIIS     0.80E-01   34.0     0.00061812     -6891.8329737671 -7.98E-01
    15 OT DIIS     0.80E-01   31.8     0.00053080     -6892.4033549769 -5.70E-01
    16 OT DIIS     0.80E-01   35.3     0.00046571     -6892.8169736681 -4.14E-01
    17 OT DIIS     0.80E-01   31.3     0.00040670     -6893.1700421087 -3.53E-01
    18 OT DIIS     0.80E-01   30.5     0.00035587     -6893.4524342153 -2.82E-01
    19 OT DIIS     0.80E-01   34.8     0.00031432     -6893.6671516287 -2.15E-01
    20 OT DIIS     0.80E-01   34.1     0.00027610     -6893.8536274504 -1.86E-01
    21 OT DIIS     0.80E-01   31.8     0.00024440     -6894.0035514163 -1.50E-01
    22 OT DIIS     0.80E-01   31.8     0.00022030     -6894.1135546571 -1.10E-01
    23 OT DIIS     0.80E-01   31.7     0.00019777     -6894.2112294784 -9.77E-02
    24 OT DIIS     0.80E-01   35.0     0.00017754     -6894.2948960191 -8.37E-02
    25 OT DIIS     0.80E-01   33.4     0.00016213     -6894.3545213603 -5.96E-02
    26 OT DIIS     0.80E-01   30.6     0.00014737     -6894.4110224388 -5.65E-02
    27 OT DIIS     0.80E-01   34.6     0.00013499     -6894.4563144490 -4.53E-02
    28 OT DIIS     0.80E-01   34.7     0.00012332     -6894.4971440087 -4.08E-02
    29 OT DIIS     0.80E-01   33.7     0.00011312     -6894.5319852438 -3.48E-02
    30 OT DIIS     0.80E-01   31.8     0.00010425     -6894.5622060593 -3.02E-02
    31 OT DIIS     0.80E-01   30.9     0.00009618     -6894.5899558881 -2.77E-02
    32 OT DIIS     0.80E-01   35.7     0.00008974     -6894.6094761703 -1.95E-02
    33 OT DIIS     0.80E-01   34.1     0.00008366     -6894.6291022807 -1.96E-02
    34 OT DIIS     0.80E-01   30.6     0.00007724     -6894.6492363791 -2.01E-02
    35 OT DIIS     0.80E-01   34.5     0.00007283     -6894.6627121365 -1.35E-02
    36 OT DIIS     0.80E-01   34.4     0.00006851     -6894.6754403323 -1.27E-02
    37 OT DIIS     0.80E-01   33.9     0.00006369     -6894.6904796789 -1.50E-02
    38 OT DIIS     0.80E-01   32.2     0.00006031     -6894.7019757358 -1.15E-02
    39 OT DIIS     0.80E-01   30.7     0.00005752     -6894.7103297515 -8.35E-03
    40 OT DIIS     0.80E-01   35.1     0.00005438     -6894.7205272542 -1.02E-02
    41 OT DIIS     0.80E-01   34.8     0.00005132     -6894.7307352687 -1.02E-02
    42 OT DIIS     0.80E-01   31.7     0.00004896     -6894.7381939246 -7.46E-03
    43 OT DIIS     0.80E-01   32.2     0.00004693     -6894.7438037786 -5.61E-03
    44 OT DIIS     0.80E-01   31.5     0.00004402     -6894.7531283982 -9.32E-03
    45 OT DIIS     0.80E-01   35.0     0.00004167     -6894.7606955046 -7.57E-03
    46 OT DIIS     0.80E-01   31.6     0.00004002     -6894.7648038302 -4.11E-03
    47 OT DIIS     0.80E-01   30.7     0.00003710     -6894.7732844968 -8.48E-03
    48 OT DIIS     0.80E-01   35.0     0.00003486     -6894.7801082365 -6.82E-03
    49 OT DIIS     0.80E-01   34.2     0.00003358     -6894.7838017940 -3.69E-03
    50 OT DIIS     0.80E-01   30.7     0.00003164     -6894.7881773475 -4.38E-03
    51 OT DIIS     0.80E-01   33.9     0.00002977     -6894.7932697059 -5.09E-03
    52 OT DIIS     0.80E-01   33.7     0.00002821     -6894.7974650811 -4.20E-03
    53 OT DIIS     0.80E-01   34.6     0.00002715     -6894.8005744901 -3.11E-03
    54 OT DIIS     0.80E-01   32.5     0.00002597     -6894.8038604703 -3.29E-03
    55 OT DIIS     0.80E-01   30.9     0.00002458     -6894.8080921657 -4.23E-03
    56 OT DIIS     0.80E-01   34.9     0.00002389     -6894.8108117343 -2.72E-03
    57 OT DIIS     0.80E-01   34.8     0.00002307     -6894.8123028014 -1.49E-03
    58 OT DIIS     0.80E-01   31.4     0.00002199     -6894.8160532253 -3.75E-03
    59 OT DIIS     0.80E-01   32.7     0.00002076     -6894.8194449062 -3.39E-03
    60 OT DIIS     0.80E-01   32.3     0.00002002     -6894.8216862648 -2.24E-03
    61 OT DIIS     0.80E-01   35.0     0.00001931     -6894.8234985953 -1.81E-03
    62 OT DIIS     0.80E-01   33.8     0.00001870     -6894.8254224667 -1.92E-03
    63 OT DIIS     0.80E-01   30.6     0.00001822     -6894.8271040053 -1.68E-03
    64 OT DIIS     0.80E-01   34.4     0.00001766     -6894.8282253065 -1.12E-03
    65 OT DIIS     0.80E-01   34.8     0.00001705     -6894.8300002720 -1.77E-03
    66 OT DIIS     0.80E-01   32.7     0.00001644     -6894.8318538318 -1.85E-03
    67 OT DIIS     0.80E-01   31.8     0.00001598     -6894.8334313534 -1.58E-03
    68 OT DIIS     0.80E-01   31.2     0.00001558     -6894.8345637702 -1.13E-03
    69 OT DIIS     0.80E-01   35.4     0.00001518     -6894.8358794580 -1.32E-03
    70 OT DIIS     0.80E-01   33.7     0.00001476     -6894.8374147202 -1.54E-03
    71 OT DIIS     0.80E-01   30.5     0.00001434     -6894.8381475649 -7.33E-04
    72 OT DIIS     0.80E-01   34.7     0.00001391     -6894.8402749335 -2.13E-03
    73 OT DIIS     0.80E-01   34.7     0.00001322     -6894.8417172076 -1.44E-03
    74 OT DIIS     0.80E-01   33.5     0.00001289     -6894.8425768901 -8.60E-04
    75 OT DIIS     0.80E-01   38.0     0.00001260     -6894.8434629085 -8.86E-04
    76 OT DIIS     0.80E-01   35.6     0.00001239     -6894.8442270074 -7.64E-04
    77 OT DIIS     0.80E-01   34.8     0.00001219     -6894.8449919344 -7.65E-04
    78 OT DIIS     0.80E-01   35.3     0.00001192     -6894.8457514989 -7.60E-04
    79 OT DIIS     0.80E-01   31.4     0.00001167     -6894.8462793290 -5.28E-04
    80 OT DIIS     0.80E-01   32.5     0.00001125     -6894.8471659532 -8.87E-04
    81 OT DIIS     0.80E-01   30.7     0.00001086     -6894.8482204277 -1.05E-03
    82 OT DIIS     0.80E-01   34.7     0.00001068     -6894.8488021576 -5.82E-04
    83 OT DIIS     0.80E-01   34.4     0.00001048     -6894.8494454771 -6.43E-04
    84 OT DIIS     0.80E-01   30.9     0.00001025     -6894.8502857212 -8.40E-04
    85 OT DIIS     0.80E-01   33.1     0.00001012     -6894.8511400988 -8.54E-04
    86 OT DIIS     0.80E-01   32.5     0.00000991     -6894.8513553775 -2.15E-04
    87 OT DIIS     0.80E-01   34.9     0.00000976     -6894.8526721928 -1.32E-03
    88 OT DIIS     0.80E-01   33.5     0.00000935     -6894.8534310258 -7.59E-04
    89 OT DIIS     0.80E-01   30.0     0.00000904     -6894.8541527003 -7.22E-04
    90 OT DIIS     0.80E-01   34.7     0.00000874     -6894.8551673507 -1.01E-03
    91 OT DIIS     0.80E-01   34.4     0.00000831     -6894.8561491058 -9.82E-04
    92 OT DIIS     0.80E-01   30.9     0.00000803     -6894.8566250045 -4.76E-04
    93 OT DIIS     0.80E-01   32.9     0.00000793     -6894.8572754576 -6.50E-04
    94 OT DIIS     0.80E-01   32.7     0.00000768     -6894.8576295243 -3.54E-04
    95 OT DIIS     0.80E-01   35.0     0.00000759     -6894.8579441322 -3.15E-04
    96 OT DIIS     0.80E-01   33.3     0.00000745     -6894.8583022175 -3.58E-04
    97 OT DIIS     0.80E-01   30.8     0.00000729     -6894.8588481056 -5.46E-04
    98 OT DIIS     0.80E-01   34.7     0.00000710     -6894.8593162999 -4.68E-04
    99 OT DIIS     0.80E-01   34.9     0.00000693     -6894.8597700688 -4.54E-04
   100 OT DIIS     0.80E-01   33.6     0.00000677     -6894.8602846310 -5.15E-04

  Leaving inner SCF loop after reaching   100 steps.


  Electronic density on regular grids:      -2431.9999999855        0.0000000145
  Core density on regular grids:             2431.9999999988       -0.0000000012
  Total charge density on r-space grids:        0.0000000134
  Total charge density g-space grids:           0.0000000134

  Overlap energy of the core charge distribution:               0.02784009766869
  Self energy of the core charge distribution:             -16017.19408509233290
  Core Hamiltonian energy:                                   4335.15819356146221
  Hartree energy:                                            6120.79162526333312
  Exchange-correlation energy:                              -1331.55772780273833
  Dispersion energy:                                           -2.08613065839653

  Total energy:                                             -6894.86028463100229

  outer SCF iter =    1 RMS gradient =   0.68E-05 energy =      -6894.8602846310

  ----------------------------------- OT ---------------------------------------
  Minimizer      : DIIS                : direct inversion
                                         in the iterative subspace
                                         using   7 DIIS vectors
                                         safer DIIS on
  Preconditioner : FULL_SINGLE_INVERSE : inversion of 
                                         H + eS - 2*(Sc)(c^T*H*c+const)(Sc)^T
  Precond_solver : DEFAULT
  stepsize       :    0.08000000                  energy_gap     :    0.08000000
  eps_taylor     :   0.10000E-15                  max_taylor     :             4
  ----------------------------------- OT ---------------------------------------

  Step     Update method      Time    Convergence         Total energy    Change
  ------------------------------------------------------------------------------
     1 OT DIIS     0.80E-01   74.1     0.00008927     -6894.8605236752 -2.39E-04
     2 OT DIIS     0.80E-01   32.3     0.00009838     -6894.8627268650 -2.20E-03
     3 OT DIIS     0.80E-01   32.5     0.00012032     -6894.8631926536 -4.66E-04
     4 OT DIIS     0.80E-01   32.3     0.00009091     -6894.8640403163 -8.48E-04
     5 OT DIIS     0.80E-01   32.1     0.00006412     -6894.8649355556 -8.95E-04
     6 OT DIIS     0.80E-01   32.6     0.00005277     -6894.8653877506 -4.52E-04
     7 OT DIIS     0.80E-01   33.8     0.00004403     -6894.8660014645 -6.14E-04
     8 OT DIIS     0.80E-01   31.1     0.00003818     -6894.8664869935 -4.86E-04
     9 OT DIIS     0.80E-01   31.5     0.00003436     -6894.8669267021 -4.40E-04
    10 OT DIIS     0.80E-01   34.2     0.00003593     -6894.8674154890 -4.89E-04
    11 OT DIIS     0.80E-01   31.2     0.00003131     -6894.8679371806 -5.22E-04
    12 OT DIIS     0.80E-01   31.1     0.00003414     -6894.8684525411 -5.15E-04
    13 OT DIIS     0.80E-01   34.5     0.00003361     -6894.8689337504 -4.81E-04
    14 OT DIIS     0.80E-01   32.5     0.00003267     -6894.8694370100 -5.03E-04
    15 OT DIIS     0.80E-01   30.7     0.00003273     -6894.8697137599 -2.77E-04
    16 OT DIIS     0.80E-01   35.0     0.00003070     -6894.8701339445 -4.20E-04
    17 OT DIIS     0.80E-01   34.3     0.00002931     -6894.8704690059 -3.35E-04
    18 OT DIIS     0.80E-01   30.2     0.00003069     -6894.8707985573 -3.30E-04
    19 OT DIIS     0.80E-01   34.8     0.00002929     -6894.8708606879 -6.21E-05
    20 OT DIIS     0.80E-01   34.4     0.00003044     -6894.8711025253 -2.42E-04
    21 OT DIIS     0.80E-01   34.4     0.00002974     -6894.8712211755 -1.19E-04
    22 OT DIIS     0.80E-01   32.5     0.00002752     -6894.8712271771 -6.00E-06
    23 OT DIIS     0.80E-01   30.8     0.00002504     -6894.8713302571 -1.03E-04
    24 OT DIIS     0.80E-01   34.7     0.00002188     -6894.8713770964 -4.68E-05
    25 OT DIIS     0.80E-01   34.3     0.00001976     -6894.8714434653 -6.64E-05
    26 OT DIIS     0.80E-01   30.7     0.00001916     -6894.8715173949 -7.39E-05
    27 OT DIIS     0.80E-01   33.6     0.00001853     -6894.8715593340 -4.19E-05
    28 OT DIIS     0.80E-01   33.8     0.00001873     -6894.8716578199 -9.85E-05
    29 OT DIIS     0.80E-01   34.6     0.00001986     -6894.8717390647 -8.12E-05
    30 OT DIIS     0.80E-01   32.8     0.00002087     -6894.8717799690 -4.09E-05
    31 OT DIIS     0.80E-01   30.5     0.00002073     -6894.8718845187 -1.05E-04
    32 OT DIIS     0.80E-01   35.1     0.00002033     -6894.8719441186 -5.96E-05
    33 OT DIIS     0.80E-01   33.8     0.00001950     -6894.8720099673 -6.58E-05
    34 OT DIIS     0.80E-01   30.8     0.00001886     -6894.8720475577 -3.76E-05
    35 OT DIIS     0.80E-01   34.3     0.00001769     -6894.8720755329 -2.80E-05
    36 OT DIIS     0.80E-01   34.0     0.00001660     -6894.8721321458 -5.66E-05
    37 OT DIIS     0.80E-01   34.4     0.00001619     -6894.8721737937 -4.16E-05
    38 OT DIIS     0.80E-01   32.9     0.00001597     -6894.8721942104 -2.04E-05
    39 OT DIIS     0.80E-01   30.6     0.00001529     -6894.8722511741 -5.70E-05
    40 OT DIIS     0.80E-01   35.0     0.00001543     -6894.8722977467 -4.66E-05
    41 OT DIIS     0.80E-01   35.0     0.00001569     -6894.8723601997 -6.25E-05
    42 OT DIIS     0.80E-01   31.7     0.00001625     -6894.8724012682 -4.11E-05
    43 OT DIIS     0.80E-01   32.3     0.00001673     -6894.8724543346 -5.31E-05
    44 OT DIIS     0.80E-01   31.8     0.00001633     -6894.8725045661 -5.02E-05
    45 OT DIIS     0.80E-01   35.1     0.00001641     -6894.8725356352 -3.11E-05
    46 OT DIIS     0.80E-01   33.6     0.00001615     -6894.8725499024 -1.43E-05
    47 OT DIIS     0.80E-01   29.4     0.00001454     -6894.8725854204 -3.55E-05
    48 OT DIIS     0.80E-01   29.8     0.00001370     -6894.8726110984 -2.57E-05
    49 OT DIIS     0.80E-01   35.5     0.00001315     -6894.8726470296 -3.59E-05
    50 OT DIIS     0.80E-01   34.3     0.00001294     -6894.8726691797 -2.22E-05
    51 OT DIIS     0.80E-01   35.4     0.00001311     -6894.8727106177 -4.14E-05
    52 OT DIIS     0.80E-01   35.5     0.00001318     -6894.8727514504 -4.08E-05
    53 OT DIIS     0.80E-01   32.0     0.00001405     -6894.8727851164 -3.37E-05
    54 OT DIIS     0.80E-01   33.3     0.00001469     -6894.8728198533 -3.47E-05
    55 OT DIIS     0.80E-01   31.3     0.00001419     -6894.8728508267 -3.10E-05
    56 OT DIIS     0.80E-01   34.1     0.00001381     -6894.8728764831 -2.57E-05
    57 OT DIIS     0.80E-01   32.6     0.00001313     -6894.8729059004 -2.94E-05
    58 OT DIIS     0.80E-01   35.3     0.00001250     -6894.8729136569 -7.76E-06
    59 OT DIIS     0.80E-01   35.3     0.00001199     -6894.8729435191 -2.99E-05
    60 OT DIIS     0.80E-01   31.5     0.00001147     -6894.8729657830 -2.23E-05
    61 OT DIIS     0.80E-01   32.7     0.00001150     -6894.8729863322 -2.05E-05
    62 OT DIIS     0.80E-01   31.3     0.00001164     -6894.8730162202 -2.99E-05
    63 OT DIIS     0.80E-01   35.6     0.00001169     -6894.8730409594 -2.47E-05
    64 OT DIIS     0.80E-01   33.4     0.00001192     -6894.8730709382 -3.00E-05
    65 OT DIIS     0.80E-01   35.4     0.00001195     -6894.8731041944 -3.33E-05
    66 OT DIIS     0.80E-01   35.2     0.00001215     -6894.8731181976 -1.40E-05
    67 OT DIIS     0.80E-01   31.7     0.00001203     -6894.8731507586 -3.26E-05
    68 OT DIIS     0.80E-01   32.8     0.00001147     -6894.8731647334 -1.40E-05
    69 OT DIIS     0.80E-01   31.2     0.00001123     -6894.8731752918 -1.06E-05
    70 OT DIIS     0.80E-01   35.1     0.00001080     -6894.8731991810 -2.39E-05
    71 OT DIIS     0.80E-01   33.8     0.00001039     -6894.8732124128 -1.32E-05
    72 OT DIIS     0.80E-01   35.3     0.00001019     -6894.8732325002 -2.01E-05
    73 OT DIIS     0.80E-01   21.0     0.00001008     -6894.8732562534 -2.38E-05
    74 OT DIIS     0.80E-01   26.1     0.00001033     -6894.8732748353 -1.86E-05
    75 OT DIIS     0.80E-01   27.8     0.00001053     -6894.8733074507 -3.26E-05
    76 OT DIIS     0.80E-01   28.4     0.00001065     -6894.8733267091 -1.93E-05
    77 OT DIIS     0.80E-01   33.6     0.00001101     -6894.8733391277 -1.24E-05
    78 OT DIIS     0.80E-01   30.7     0.00001077     -6894.8733671142 -2.80E-05
    79 OT DIIS     0.80E-01   34.6     0.00001047     -6894.8733745004 -7.39E-06
    80 OT DIIS     0.80E-01   34.7     0.00001001     -6894.8733892081 -1.47E-05
    81 OT DIIS     0.80E-01   33.3     0.00000950     -6894.8734040081 -1.48E-05
    82 OT DIIS     0.80E-01   31.8     0.00000933     -6894.8734167881 -1.28E-05
    83 OT DIIS     0.80E-01   30.8     0.00000920     -6894.8734388566 -2.21E-05
    84 OT DIIS     0.80E-01   35.2     0.00000926     -6894.8734554294 -1.66E-05
    85 OT DIIS     0.80E-01   34.0     0.00000954     -6894.8734700384 -1.46E-05
    86 OT DIIS     0.80E-01   30.7     0.00000960     -6894.8734992430 -2.92E-05
    87 OT DIIS     0.80E-01   34.2     0.00000987     -6894.8735125713 -1.33E-05
    88 OT DIIS     0.80E-01   34.5     0.00000982     -6894.8735304486 -1.79E-05
    89 OT DIIS     0.80E-01   34.3     0.00000950     -6894.8735420822 -1.16E-05
    90 OT DIIS     0.80E-01   31.2     0.00000933     -6894.8735544380 -1.24E-05
    91 OT DIIS     0.80E-01   31.0     0.00000899     -6894.8735710161 -1.66E-05
    92 OT DIIS     0.80E-01   35.5     0.00000877     -6894.8735814935 -1.05E-05
    93 OT DIIS     0.80E-01   33.5     0.00000869     -6894.8735907222 -9.23E-06
    94 OT DIIS     0.80E-01   30.7     0.00000854     -6894.8736112590 -2.05E-05
    95 OT DIIS     0.80E-01   35.1     0.00000868     -6894.8736247198 -1.35E-05
    96 OT DIIS     0.80E-01   34.8     0.00000875     -6894.8736433556 -1.86E-05
    97 OT DIIS     0.80E-01   33.9     0.00000880     -6894.8736575508 -1.42E-05
    98 OT DIIS     0.80E-01   31.7     0.00000894     -6894.8736776183 -2.01E-05
    99 OT DIIS     0.80E-01   30.8     0.00000888     -6894.8736937043 -1.61E-05
   100 OT DIIS     0.80E-01   35.3     0.00000878     -6894.8737033502 -9.65E-06

  Leaving inner SCF loop after reaching   100 steps.


  Electronic density on regular grids:      -2431.9999999853        0.0000000147
  Core density on regular grids:             2431.9999999988       -0.0000000012
  Total charge density on r-space grids:        0.0000000135
  Total charge density g-space grids:           0.0000000135

  Overlap energy of the core charge distribution:               0.02784009766869
  Self energy of the core charge distribution:             -16017.19408509233290
  Core Hamiltonian energy:                                   4335.15707900368670
  Hartree energy:                                            6120.77697373617411
  Exchange-correlation energy:                              -1331.55538043703132
  Dispersion energy:                                           -2.08613065839653

  Total energy:                                             -6894.87370335023115

  outer SCF iter =    2 RMS gradient =   0.88E-05 energy =      -6894.8737033502

  ----------------------------------- OT ---------------------------------------
  Minimizer      : DIIS                : direct inversion
                                         in the iterative subspace
                                         using   7 DIIS vectors
                                         safer DIIS on
  Preconditioner : FULL_SINGLE_INVERSE : inversion of 
                                         H + eS - 2*(Sc)(c^T*H*c+const)(Sc)^T
  Precond_solver : DEFAULT
  stepsize       :    0.08000000                  energy_gap     :    0.08000000
  eps_taylor     :   0.10000E-15                  max_taylor     :             4
  ----------------------------------- OT ---------------------------------------

  Step     Update method      Time    Convergence         Total energy    Change
  ------------------------------------------------------------------------------
     1 OT DIIS     0.80E-01   74.6     0.00000877     -6894.8737096031 -6.25E-06
     2 OT DIIS     0.80E-01   32.6     0.00002483     -6894.8737192747 -9.67E-06
     3 OT DIIS     0.80E-01   33.7     0.00000796     -6894.8737431132 -2.38E-05
     4 OT DIIS     0.80E-01   30.7     0.00000770     -6894.8737513485 -8.24E-06
     5 OT DIIS     0.80E-01   32.9     0.00000951     -6894.8738511528 -9.98E-05
     6 OT DIIS     0.80E-01   33.6     0.00001086     -6894.8743102791 -4.59E-04
     7 OT DIIS     0.80E-01   31.7     0.00000859     -6894.8743725725 -6.23E-05
     8 OT SD       0.80E-01   32.5     0.00000907     -6894.8743803783 -7.81E-06
     9 OT DIIS     0.80E-01   32.7     0.00001568     -6894.8743929886 -1.26E-05
    10 OT SD       0.80E-01   33.8     0.00000835     -6894.8744524567 -5.95E-05
    11 OT DIIS     0.80E-01   31.1     0.00003087     -6894.8744407812  1.17E-05
    12 OT DIIS     0.80E-01   31.5     0.00000667     -6894.8744590033 -1.82E-05
    13 OT SD       0.80E-01   34.1     0.00000675     -6894.8745248924 -6.59E-05
    14 OT DIIS     0.80E-01   31.2     0.00001352     -6894.8745390934 -1.42E-05
    15 OT SD       0.80E-01   31.1     0.00000713     -6894.8747053078 -1.66E-04
    16 OT DIIS     0.80E-01   34.5     0.00001747     -6894.8747135660 -8.26E-06
    17 OT DIIS     0.80E-01   32.0     0.00000702     -6894.8747474636 -3.39E-05
    18 OT DIIS     0.80E-01   30.5     0.00000707     -6894.8749416024 -1.94E-04
    19 OT SD       0.80E-01   33.8     0.00000728     -6894.8750071415 -6.55E-05
    20 OT SD       0.80E-01   31.1     0.00001711     -6894.8750147323 -7.59E-06
    21 OT DIIS     0.80E-01   30.9     0.00008535     -6894.8747755517  2.39E-04
    22 OT DIIS     0.80E-01   34.3     0.00000616     -6894.8750386482 -2.63E-04
    23 OT DIIS     0.80E-01   31.3     0.00000607     -6894.8750411674 -2.52E-06
    24 OT DIIS     0.80E-01   30.9     0.00000606     -6894.8750618597 -2.07E-05
    25 OT SD       0.80E-01   34.3     0.00000604     -6894.8751148180 -5.30E-05
    26 OT DIIS     0.80E-01   32.0     0.00000810     -6894.8751306135 -1.58E-05
    27 OT DIIS     0.80E-01   30.3     0.00000602     -6894.8751549238 -2.43E-05
    28 OT DIIS     0.80E-01   34.4     0.00000604     -6894.8752279110 -7.30E-05
    29 OT SD       0.80E-01   32.0     0.00000611     -6894.8753070816 -7.92E-05
    30 OT DIIS     0.80E-01   30.5     0.00001055     -6894.8753208111 -1.37E-05
    31 OT DIIS     0.80E-01   34.4     0.00000595     -6894.8753556268 -3.48E-05
    32 OT SD       0.80E-01   31.9     0.00000609     -6894.8754321761 -7.65E-05
    33 OT DIIS     0.80E-01   30.4     0.00000958     -6894.8754459933 -1.38E-05
    34 OT DIIS     0.80E-01   33.8     0.00000603     -6894.8755181300 -7.21E-05
    35 OT DIIS     0.80E-01   31.3     0.00000641     -6894.8756163512 -9.82E-05
    36 OT SD       0.80E-01   31.3     0.00000627     -6894.8756270176 -1.07E-05
    37 OT DIIS     0.80E-01   34.3     0.00001337     -6894.8756373285 -1.03E-05
    38 OT SD       0.80E-01   31.7     0.00000628     -6894.8756796819 -4.24E-05
    39 OT DIIS     0.80E-01   30.6     0.00001641     -6894.8756871531 -7.47E-06
    40 OT DIIS     0.80E-01   34.5     0.00000574     -6894.8757056996 -1.85E-05
    41 OT DIIS     0.80E-01   32.9     0.00000581     -6894.8757414457 -3.57E-05
    42 OT DIIS     0.80E-01   30.2     0.00000599     -6894.8757707641 -2.93E-05
    43 OT SD       0.80E-01   35.0     0.00000639     -6894.8759443255 -1.74E-04
    44 OT SD       0.80E-01   32.9     0.00001108     -6894.8759554413 -1.11E-05
    45 OT DIIS     0.80E-01   30.5     0.00004456     -6894.8758957349  5.97E-05
    46 OT DIIS     0.80E-01   35.2     0.00000593     -6894.8760213138 -1.26E-04
    47 OT SD       0.80E-01   34.4     0.00000710     -6894.8761622178 -1.41E-04
    48 OT SD       0.80E-01   30.9     0.00001281     -6894.8761709924 -8.77E-06
    49 OT DIIS     0.80E-01   34.1     0.00005154     -6894.8760865048  8.45E-05
    50 OT SD       0.80E-01   28.7     0.00000595     -6894.8762429840 -1.56E-04
    51 OT DIIS     0.80E-01   31.3     0.00001208     -6894.8762523520 -9.37E-06
    52 OT DIIS     0.80E-01   35.2     0.00000594     -6894.8763120648 -5.97E-05
    53 OT DIIS     0.80E-01   35.3     0.00000670     -6894.8764501656 -1.38E-04
    54 OT SD       0.80E-01   35.3     0.00000609     -6894.8764489172  1.25E-06
    55 OT DIIS     0.80E-01   35.2     0.00001621     -6894.8764537254 -4.81E-06
    56 OT DIIS     0.80E-01   31.3     0.00000652     -6894.8765447401 -9.10E-05
    57 OT SD       0.80E-01   32.4     0.00000786     -6894.8766330909 -8.84E-05
    58 OT DIIS     0.80E-01   31.0     0.00003035     -6894.8766138643  1.92E-05
    59 OT DIIS     0.80E-01   35.1     0.00000576     -6894.8766637855 -4.99E-05
    60 OT SD       0.80E-01   33.9     0.00000775     -6894.8768595893 -1.96E-04
    61 OT SD       0.80E-01   30.7     0.00001576     -6894.8768618213 -2.23E-06
    62 OT DIIS     0.80E-01   33.7     0.00005877     -6894.8767289721  1.33E-04
    63 OT DIIS     0.80E-01   33.3     0.00000571     -6894.8768318789 -1.03E-04
    64 OT SD       0.80E-01   34.4     0.00000663     -6894.8769324410 -1.01E-04
    65 OT DIIS     0.80E-01   32.5     0.00002413     -6894.8769228550  9.59E-06
    66 OT DIIS     0.80E-01   30.7     0.00000545     -6894.8769071656  1.57E-05
    67 OT SD       0.80E-01   35.0     0.00000627     -6894.8770692287 -1.62E-04
    68 OT DIIS     0.80E-01   34.5     0.00002428     -6894.8770590836  1.01E-05
    69 OT DIIS     0.80E-01   30.6     0.00000515     -6894.8770815523 -2.25E-05
    70 OT DIIS     0.80E-01   33.3     0.00000782     -6894.8772883165 -2.07E-04
    71 OT SD       0.80E-01   33.0     0.00000834     -6894.8773089501 -2.06E-05
    72 OT SD       0.80E-01   34.8     0.00003103     -6894.8772830713  2.59E-05
    73 OT DIIS     0.80E-01   33.3     0.00016649     -6894.8763035840  9.79E-04
    74 OT DIIS     0.80E-01   30.5     0.00000501     -6894.8772442705 -9.41E-04
    75 OT DIIS     0.80E-01   35.2     0.00000442     -6894.8772781567 -3.39E-05
    76 OT SD       0.80E-01   34.9     0.00000469     -6894.8773080206 -2.99E-05
    77 OT DIIS     0.80E-01   33.0     0.00001407     -6894.8773096859 -1.67E-06
    78 OT DIIS     0.80E-01   31.7     0.00000420     -6894.8773216743 -1.20E-05
    79 OT DIIS     0.80E-01   31.6     0.00000413     -6894.8773374382 -1.58E-05
    80 OT DIIS     0.80E-01   35.2     0.00000445     -6894.8773966115 -5.92E-05
    81 OT SD       0.80E-01   34.3     0.00000521     -6894.8775290163 -1.32E-04
    82 OT SD       0.80E-01   30.7     0.00001346     -6894.8775300578 -1.04E-06
    83 OT DIIS     0.80E-01   34.2     0.00006879     -6894.8773668659  1.63E-04
    84 OT DIIS     0.80E-01   34.3     0.00000411     -6894.8775336947 -1.67E-04
    85 OT DIIS     0.80E-01   34.7     0.00000542     -6894.8776282767 -9.46E-05
    86 OT SD       0.80E-01   32.8     0.00000606     -6894.8776948828 -6.66E-05
    87 OT SD       0.80E-01   30.6     0.00001002     -6894.8776992243 -4.34E-06
    88 OT DIIS     0.80E-01   35.1     0.00003887     -6894.8776474172  5.18E-05
    89 OT DIIS     0.80E-01   34.6     0.00000394     -6894.8776048876  4.25E-05
    90 OT DIIS     0.80E-01   30.8     0.00000403     -6894.8776282057 -2.33E-05
    91 OT DIIS     0.80E-01   32.9     0.00000366     -6894.8776373874 -9.18E-06
    92 OT DIIS     0.80E-01   32.5     0.00000364     -6894.8776449450 -7.56E-06
    93 OT DIIS     0.80E-01   34.6     0.00000366     -6894.8776477158 -2.77E-06
    94 OT DIIS     0.80E-01   33.3     0.00000376     -6894.8776648758 -1.72E-05
    95 OT SD       0.80E-01   30.6     0.00000350     -6894.8777209257 -5.60E-05
    96 OT DIIS     0.80E-01   35.1     0.00000562     -6894.8777255114 -4.59E-06
    97 OT DIIS     0.80E-01   34.9     0.00000377     -6894.8777860449 -6.05E-05
    98 OT SD       0.80E-01   32.9     0.00000420     -6894.8778495336 -6.35E-05
    99 OT SD       0.80E-01   23.1     0.00000975     -6894.8778512463 -1.71E-06
   100 OT DIIS     0.80E-01   24.8     0.00004610     -6894.8777776701  7.36E-05

  Leaving inner SCF loop after reaching   100 steps.


  Electronic density on regular grids:      -2431.9999999853        0.0000000147
  Core density on regular grids:             2431.9999999988       -0.0000000012
  Total charge density on r-space grids:        0.0000000135
  Total charge density g-space grids:           0.0000000135

  Overlap energy of the core charge distribution:               0.02784009766869
  Self energy of the core charge distribution:             -16017.19408509233290
  Core Hamiltonian energy:                                   4335.11366975040892
  Hartree energy:                                            6120.80543208978725
  Exchange-correlation energy:                              -1331.54450385723658
  Dispersion energy:                                           -2.08613065839653

  Total energy:                                             -6894.87777767010175

  outer SCF iter =    3 RMS gradient =   0.46E-04 energy =      -6894.8777776701

  ----------------------------------- OT ---------------------------------------
  Minimizer      : DIIS                : direct inversion
                                         in the iterative subspace
                                         using   7 DIIS vectors
                                         safer DIIS on
  Preconditioner : FULL_SINGLE_INVERSE : inversion of 
                                         H + eS - 2*(Sc)(c^T*H*c+const)(Sc)^T
  Precond_solver : DEFAULT
  stepsize       :    0.08000000                  energy_gap     :    0.08000000
  eps_taylor     :   0.10000E-15                  max_taylor     :             4
  ----------------------------------- OT ---------------------------------------

  Step     Update method      Time    Convergence         Total energy    Change
  ------------------------------------------------------------------------------
     1 OT DIIS     0.80E-01   57.3     0.00000363     -6894.8778494179 -7.17E-05
     2 OT DIIS     0.80E-01   30.2     0.00000880     -6894.8778522830 -2.87E-06
     3 OT DIIS     0.80E-01   33.4     0.00000342     -6894.8778554907 -3.21E-06
     4 OT DIIS     0.80E-01   34.0     0.00000330     -6894.8778571856 -1.69E-06
     5 OT DIIS     0.80E-01   30.3     0.00000352     -6894.8778637616 -6.58E-06
     6 OT DIIS     0.80E-01   33.6     0.00000326     -6894.8778760798 -1.23E-05
     7 OT DIIS     0.80E-01   34.1     0.00000332     -6894.8778902910 -1.42E-05
     8 OT DIIS     0.80E-01   31.5     0.00000317     -6894.8779010683 -1.08E-05
     9 OT DIIS     0.80E-01   32.3     0.00000317     -6894.8779110035 -9.94E-06
    10 OT DIIS     0.80E-01   33.1     0.00000312     -6894.8779170263 -6.02E-06
    11 OT DIIS     0.80E-01   33.6     0.00000315     -6894.8779252987 -8.27E-06
    12 OT DIIS     0.80E-01   31.3     0.00000315     -6894.8779359963 -1.07E-05
    13 OT DIIS     0.80E-01   31.7     0.00000314     -6894.8779553506 -1.94E-05
    14 OT DIIS     0.80E-01   34.1     0.00000319     -6894.8779841357 -2.88E-05
    15 OT SD       0.80E-01   31.1     0.00000320     -6894.8780003404 -1.62E-05
    16 OT DIIS     0.80E-01   32.1     0.00000713     -6894.8780031287 -2.79E-06
    17 OT DIIS     0.80E-01   34.1     0.00000329     -6894.8780455247 -4.24E-05
    18 OT DIIS     0.80E-01   31.4     0.00000346     -6894.8780912667 -4.57E-05
    19 OT SD       0.80E-01   31.0     0.00000336     -6894.8781238608 -3.26E-05
    20 OT SD       0.80E-01   34.5     0.00000690     -6894.8781260769 -2.22E-06
    21 OT DIIS     0.80E-01   32.8     0.00003282     -6894.8780918212  3.43E-05
    22 OT DIIS     0.80E-01   30.1     0.00000309     -6894.8781688562 -7.70E-05
    23 OT DIIS     0.80E-01   35.0     0.00000295     -6894.8781811228 -1.23E-05
    24 OT SD       0.80E-01   32.5     0.00000315     -6894.8782202711 -3.91E-05
    25 OT DIIS     0.80E-01   30.3     0.00000881     -6894.8782211907 -9.20E-07
    26 OT SD       0.80E-01   35.1     0.00000291     -6894.8782409750 -1.98E-05
    27 OT DIIS     0.80E-01   33.0     0.00000648     -6894.8782428706 -1.90E-06
    28 OT DIIS     0.80E-01   30.2     0.00000283     -6894.8782598482 -1.70E-05
    29 OT SD       0.80E-01   35.1     0.00000279     -6894.8782666578 -6.81E-06
    30 OT DIIS     0.80E-01   32.0     0.00000678     -6894.8782684530 -1.80E-06
    31 OT DIIS     0.80E-01   30.4     0.00000262     -6894.8782938664 -2.54E-05
    32 OT DIIS     0.80E-01   34.8     0.00000268     -6894.8783277452 -3.39E-05
    33 OT SD       0.80E-01   31.9     0.00000274     -6894.8783348302 -7.08E-06
    34 OT DIIS     0.80E-01   30.3     0.00000700     -6894.8783364064 -1.58E-06
    35 OT DIIS     0.80E-01   34.6     0.00000252     -6894.8783518857 -1.55E-05
    36 OT DIIS     0.80E-01   32.3     0.00000266     -6894.8783750237 -2.31E-05
    37 OT DIIS     0.80E-01   30.2     0.00000255     -6894.8783903002 -1.53E-05
    38 OT SD       0.80E-01   34.9     0.00000270     -6894.8784288698 -3.86E-05
    39 OT SD       0.80E-01   32.5     0.00000494     -6894.8784310751 -2.21E-06
    40 OT DIIS     0.80E-01   30.2     0.00002314     -6894.8784150803  1.60E-05
    41 OT DIIS     0.80E-01   34.8     0.00000248     -6894.8784162370 -1.16E-06
    42 OT DIIS     0.80E-01   33.7     0.00000257     -6894.8784324673 -1.62E-05
    43 OT SD       0.80E-01   30.4     0.00000249     -6894.8784341775 -1.71E-06
    44 OT DIIS     0.80E-01   34.5     0.00000431     -6894.8784364793 -2.30E-06
    45 OT DIIS     0.80E-01   33.7     0.00000248     -6894.8784418744 -5.40E-06
    46 OT DIIS     0.80E-01   30.2     0.00000247     -6894.8784473320 -5.46E-06
    47 OT DIIS     0.80E-01   34.2     0.00000245     -6894.8784601708 -1.28E-05
    48 OT SD       0.80E-01   34.4     0.00000242     -6894.8784801916 -2.00E-05
    49 OT DIIS     0.80E-01   30.4     0.00000375     -6894.8784825591 -2.37E-06
    50 OT SD       0.80E-01   33.8     0.00000238     -6894.8784909247 -8.37E-06
    51 OT DIIS     0.80E-01   33.9     0.00000321     -6894.8784934071 -2.48E-06
    52 OT SD       0.80E-01   31.4     0.00000236     -6894.8785003214 -6.91E-06
    53 OT DIIS     0.80E-01   32.3     0.00000277     -6894.8785028952 -2.57E-06
    54 OT DIIS     0.80E-01   33.0     0.00000236     -6894.8785098963 -7.00E-06
    55 OT SD       0.80E-01   34.4     0.00000235     -6894.8785196260 -9.73E-06
    56 OT DIIS     0.80E-01   32.7     0.00000276     -6894.8785221970 -2.57E-06
    57 OT DIIS     0.80E-01   30.6     0.00000235     -6894.8785320719 -9.87E-06
    58 OT DIIS     0.80E-01   35.1     0.00000235     -6894.8785512636 -1.92E-05
    59 OT SD       0.80E-01   34.4     0.00000234     -6894.8785571688 -5.91E-06
    60 OT DIIS     0.80E-01   29.9     0.00000246     -6894.8785597763 -2.61E-06
    61 OT DIIS     0.80E-01   33.7     0.00000234     -6894.8785701787 -1.04E-05
    62 OT DIIS     0.80E-01   33.3     0.00000235     -6894.8785815976 -1.14E-05
    63 OT DIIS     0.80E-01   35.1     0.00000235     -6894.8785840160 -2.42E-06
    64 OT DIIS     0.80E-01   33.4     0.00000235     -6894.8786096726 -2.57E-05
    65 OT SD       0.80E-01   30.5     0.00000235     -6894.8786157005 -6.03E-06
    66 OT DIIS     0.80E-01   35.0     0.00000264     -6894.8786182462 -2.55E-06
    67 OT DIIS     0.80E-01   35.0     0.00000234     -6894.8786184500 -2.04E-07
    68 OT DIIS     0.80E-01   33.8     0.00000233     -6894.8786268220 -8.37E-06
    69 OT DIIS     0.80E-01   31.8     0.00000235     -6894.8786401567 -1.33E-05
    70 OT DIIS     0.80E-01   30.7     0.00000233     -6894.8786402563 -9.95E-08
    71 OT DIIS     0.80E-01   35.7     0.00000233     -6894.8786511781 -1.09E-05
    72 OT SD       0.80E-01   34.3     0.00000234     -6894.8786674485 -1.63E-05
    73 OT DIIS     0.80E-01   31.4     0.00000277     -6894.8786699392 -2.49E-06
    74 OT DIIS     0.80E-01   23.9     0.00000234     -6894.8786788216 -8.88E-06
    75 OT DIIS     0.80E-01   30.8     0.00000236     -6894.8787004680 -2.16E-05
    76 OT SD       0.80E-01   35.0     0.00000240     -6894.8787170383 -1.66E-05
    77 OT SD       0.80E-01   34.9     0.00000363     -6894.8787192945 -2.26E-06
    78 OT DIIS     0.80E-01   34.1     0.00001509     -6894.8787138722  5.42E-06
    79 OT DIIS     0.80E-01   32.1     0.00000233     -6894.8787357194 -2.18E-05
    80 OT DIIS     0.80E-01   30.6     0.00000233     -6894.8787407855 -5.07E-06
    81 OT DIIS     0.80E-01   35.3     0.00000244     -6894.8787758987 -3.51E-05
    82 OT SD       0.80E-01   34.5     0.00000267     -6894.8787991419 -2.32E-05
    83 OT SD       0.80E-01   30.7     0.00000650     -6894.8788002357 -1.09E-06
    84 OT DIIS     0.80E-01   33.2     0.00003375     -6894.8787632661  3.70E-05
    85 OT DIIS     0.80E-01   32.6     0.00000227     -6894.8788024725 -3.92E-05
    86 OT DIIS     0.80E-01   35.0     0.00000267     -6894.8788441282 -4.17E-05
    87 OT SD       0.80E-01   33.6     0.00000249     -6894.8788532784 -9.15E-06
    88 OT DIIS     0.80E-01   30.5     0.00000416     -6894.8788551804 -1.90E-06
    89 OT SD       0.80E-01   34.6     0.00000294     -6894.8788993394 -4.42E-05
    90 OT SD       0.80E-01   34.7     0.00000938     -6894.8788985771  7.62E-07
    91 OT DIIS     0.80E-01   30.8     0.00005108     -6894.8788107141  8.79E-05
    92 OT DIIS     0.80E-01   33.0     0.00000227     -6894.8789328366 -1.22E-04
    93 OT DIIS     0.80E-01   32.3     0.00000550     -6894.8790024817 -6.96E-05
    94 OT SD       0.80E-01   35.2     0.00000549     -6894.8790069026 -4.42E-06
    95 OT SD       0.80E-01   33.1     0.00001303     -6894.8790012095  5.69E-06
    96 OT DIIS     0.80E-01   30.6     0.00004490     -6894.8789132579  8.80E-05
    97 OT DIIS     0.80E-01   35.5     0.00000244     -6894.8789497924 -3.65E-05
    98 OT DIIS     0.80E-01   35.0     0.00000221     -6894.8789638567 -1.41E-05
    99 OT DIIS     0.80E-01   33.0     0.00000224     -6894.8789688938 -5.04E-06
   100 OT DIIS     0.80E-01   31.7     0.00000212     -6894.8789720333 -3.14E-06

  Leaving inner SCF loop after reaching   100 steps.


  Electronic density on regular grids:      -2431.9999999853        0.0000000147
  Core density on regular grids:             2431.9999999988       -0.0000000012
  Total charge density on r-space grids:        0.0000000135
  Total charge density g-space grids:           0.0000000135

  Overlap energy of the core charge distribution:               0.02784009766869
  Self energy of the core charge distribution:             -16017.19408509233290
  Core Hamiltonian energy:                                   4335.12024904925511
  Hartree energy:                                            6120.79642040513136
  Exchange-correlation energy:                              -1331.54326583466150
  Dispersion energy:                                           -2.08613065839653

  Total energy:                                             -6894.87897203333614

  outer SCF iter =    4 RMS gradient =   0.21E-05 energy =      -6894.8789720333

  ----------------------------------- OT ---------------------------------------
  Minimizer      : DIIS                : direct inversion
                                         in the iterative subspace
                                         using   7 DIIS vectors
                                         safer DIIS on
  Preconditioner : FULL_SINGLE_INVERSE : inversion of 
                                         H + eS - 2*(Sc)(c^T*H*c+const)(Sc)^T
  Precond_solver : DEFAULT
  stepsize       :    0.08000000                  energy_gap     :    0.08000000
  eps_taylor     :   0.10000E-15                  max_taylor     :             4
  ----------------------------------- OT ---------------------------------------

  Step     Update method      Time    Convergence         Total energy    Change
  ------------------------------------------------------------------------------
     1 OT DIIS     0.80E-01   67.1     0.00000224     -6894.8789735985 -1.57E-06
     2 OT DIIS     0.80E-01   34.1     0.00000542     -6894.8789748455 -1.25E-06
     3 OT DIIS     0.80E-01   29.3     0.00000210     -6894.8789759988 -1.15E-06
     4 OT DIIS     0.80E-01   34.3     0.00000208     -6894.8789766532 -6.54E-07
     5 OT DIIS     0.80E-01   33.6     0.00000216     -6894.8789817242 -5.07E-06
     6 OT DIIS     0.80E-01   29.9     0.00000212     -6894.8789922000 -1.05E-05
     7 OT DIIS     0.80E-01   34.7     0.00000206     -6894.8789981136 -5.91E-06
     8 OT DIIS     0.80E-01   33.5     0.00000202     -6894.8790034036 -5.29E-06
     9 OT DIIS     0.80E-01   30.1     0.00000201     -6894.8790089068 -5.50E-06
    10 OT DIIS     0.80E-01   34.5     0.00000202     -6894.8790121124 -3.21E-06
    11 OT DIIS     0.80E-01   33.7     0.00000212     -6894.8790184599 -6.35E-06
    12 OT DIIS     0.80E-01   30.0     0.00000203     -6894.8790322799 -1.38E-05
    13 OT DIIS     0.80E-01   34.3     0.00000200     -6894.8790504747 -1.82E-05
    14 OT SD       0.80E-01   33.7     0.00000201     -6894.8790565873 -6.11E-06
    15 OT DIIS     0.80E-01   30.1     0.00000374     -6894.8790579925 -1.41E-06
    16 OT DIIS     0.80E-01   34.4     0.00000218     -6894.8790810518 -2.31E-05
    17 OT DIIS     0.80E-01   33.9     0.00000234     -6894.8791059211 -2.49E-05
    18 OT SD       0.80E-01   29.3     0.00000227     -6894.8791136206 -7.70E-06
    19 OT DIIS     0.80E-01   26.6     0.00000524     -6894.8791141920 -5.71E-07
    20 OT DIIS     0.80E-01   31.2     0.00000248     -6894.8791213419 -7.15E-06
    21 OT SD       0.80E-01   30.4     0.00000367     -6894.8791688392 -4.75E-05
    22 OT SD       0.80E-01   35.1     0.00000883     -6894.8791664364  2.40E-06
    23 OT DIIS     0.80E-01   32.6     0.00002982     -6894.8791272792  3.92E-05
    24 OT DIIS     0.80E-01   32.0     0.00000212     -6894.8791722107 -4.49E-05
    25 OT SD       0.80E-01   31.1     0.00000210     -6894.8791897889 -1.76E-05
    26 OT DIIS     0.80E-01   34.6     0.00000631     -6894.8791896314  1.57E-07
    27 OT DIIS     0.80E-01   31.9     0.00000190     -6894.8791990097 -9.38E-06
    28 OT SD       0.80E-01   30.6     0.00000185     -6894.8792197003 -2.07E-05
    29 OT DIIS     0.80E-01   34.6     0.00000420     -6894.8792200085 -3.08E-07
    30 OT DIIS     0.80E-01   32.0     0.00000210     -6894.8792398678 -1.99E-05
    31 OT SD       0.80E-01   30.6     0.00000175     -6894.8792466475 -6.78E-06
    32 OT DIIS     0.80E-01   34.5     0.00000453     -6894.8792467848 -1.37E-07
    33 OT DIIS     0.80E-01   31.5     0.00000169     -6894.8792498548 -3.07E-06
    34 OT DIIS     0.80E-01   30.9     0.00000147     -6894.8792562498 -6.40E-06
    35 OT DIIS     0.80E-01   34.7     0.00000143     -6894.8792564534 -2.04E-07
    36 OT DIIS     0.80E-01   30.6     0.00000138     -6894.8792598395 -3.39E-06
    37 OT DIIS     0.80E-01   31.3     0.00000140     -6894.8792686761 -8.84E-06
    38 OT DIIS     0.80E-01   34.2     0.00000137     -6894.8792744403 -5.76E-06
    39 OT DIIS     0.80E-01   31.4     0.00000144     -6894.8792747253 -2.85E-07
    40 OT DIIS     0.80E-01   31.0     0.00000141     -6894.8792847445 -1.00E-05
    41 OT DIIS     0.80E-01   34.8     0.00000135     -6894.8792884553 -3.71E-06
    42 OT DIIS     0.80E-01   32.3     0.00000131     -6894.8792933552 -4.90E-06
    43 OT DIIS     0.80E-01   30.3     0.00000129     -6894.8792975116 -4.16E-06
    44 OT DIIS     0.80E-01   35.1     0.00000136     -6894.8793054166 -7.90E-06
    45 OT DIIS     0.80E-01   32.8     0.00000129     -6894.8793100743 -4.66E-06
    46 OT DIIS     0.80E-01   29.9     0.00000137     -6894.8793192136 -9.14E-06
    47 OT SD       0.80E-01   34.9     0.00000128     -6894.8793250849 -5.87E-06
    48 OT DIIS     0.80E-01   32.2     0.00000194     -6894.8793256395 -5.55E-07
    49 OT DIIS     0.80E-01   30.4     0.00000131     -6894.8793258625 -2.23E-07
    50 OT DIIS     0.80E-01   34.9     0.00000123     -6894.8793304639 -4.60E-06
    51 OT DIIS     0.80E-01   31.9     0.00000126     -6894.8793365353 -6.07E-06
    52 OT DIIS     0.80E-01   30.7     0.00000145     -6894.8793430703 -6.53E-06
    53 OT DIIS     0.80E-01   35.6     0.00000133     -6894.8793454454 -2.38E-06
    54 OT SD       0.80E-01   34.6     0.00000151     -6894.8793603833 -1.49E-05
    55 OT SD       0.80E-01   30.8     0.00000505     -6894.8793599875  3.96E-07
    56 OT DIIS     0.80E-01   32.9     0.00002727     -6894.8793345418  2.54E-05
    57 OT DIIS     0.80E-01   32.6     0.00000113     -6894.8793676833 -3.31E-05
    58 OT SD       0.80E-01   35.2     0.00000117     -6894.8793713656 -3.68E-06
    59 OT DIIS     0.80E-01   33.4     0.00000314     -6894.8793715129 -1.47E-07
    60 OT DIIS     0.80E-01   30.6     0.00000115     -6894.8793807853 -9.27E-06
    61 OT SD       0.80E-01   34.5     0.00000114     -6894.8793861747 -5.39E-06
    62 OT SD       0.80E-01   34.6     0.00000254     -6894.8793864116 -2.37E-07
    63 OT DIIS     0.80E-01   34.7     0.00001268     -6894.8793811851  5.23E-06
    64 OT DIIS     0.80E-01   33.3     0.00000101     -6894.8793864129 -5.23E-06
    65 OT SD       0.80E-01   30.1     0.00000109     -6894.8793889543 -2.54E-06
    66 OT DIIS     0.80E-01   35.3     0.00000324     -6894.8793890152 -6.09E-08
    67 OT DIIS     0.80E-01   34.6     0.00000099     -6894.8793898280 -8.13E-07

  *** SCF run converged in    67 steps ***


  Electronic density on regular grids:      -2431.9999999853        0.0000000147
  Core density on regular grids:             2431.9999999988       -0.0000000012
  Total charge density on r-space grids:        0.0000000135
  Total charge density g-space grids:           0.0000000135

  Overlap energy of the core charge distribution:               0.02784009766869
  Self energy of the core charge distribution:             -16017.19408509233290
  Core Hamiltonian energy:                                   4335.11696195989407
  Hartree energy:                                            6120.79827157666750
  Exchange-correlation energy:                              -1331.54224771151235
  Dispersion energy:                                           -2.08613065839653

  Total energy:                                             -6894.87938982801006

  outer SCF iter =    5 RMS gradient =   0.99E-06 energy =      -6894.8793898280
  outer SCF loop converged in   5 iterations or  467 steps


 ENERGY| Total FORCE_EVAL ( QS ) energy [hartree]          -6894.879394066976602

 Number of electrons:                                                       2432
 Number of occupied orbitals:                                               1216
 Number of molecular orbitals:                                              1216

 Number of orbital functions:                                               4983
 Number of independent orbital functions:                                   4983

 Extrapolation method: ASPC


 SCF WAVEFUNCTION OPTIMIZATION

  ----------------------------------- OT ---------------------------------------
  Minimizer      : DIIS                : direct inversion
                                         in the iterative subspace
                                         using   7 DIIS vectors
                                         safer DIIS on
  Preconditioner : FULL_SINGLE_INVERSE : inversion of 
                                         H + eS - 2*(Sc)(c^T*H*c+const)(Sc)^T
  Precond_solver : DEFAULT
  stepsize       :    0.08000000                  energy_gap     :    0.08000000
  eps_taylor     :   0.10000E-15                  max_taylor     :             4
  ----------------------------------- OT ---------------------------------------

  Step     Update method      Time    Convergence         Total energy    Change
  ------------------------------------------------------------------------------
     1 OT DIIS     0.80E-01   31.5     0.00410747     -6903.5481597439 -6.90E+03
     2 OT DIIS     0.80E-01   32.5     0.00248510     -6909.6836879156 -6.14E+00
     3 OT DIIS     0.80E-01   35.2     0.00171386     -6912.4868589401 -2.80E+00
     4 OT DIIS     0.80E-01   33.4     0.00112782     -6913.6462160605 -1.16E+00
     5 OT DIIS     0.80E-01   30.5     0.00092168     -6913.9219187637 -2.76E-01
     6 OT DIIS     0.80E-01   34.7     0.00062822     -6914.0714451066 -1.50E-01
     7 OT DIIS     0.80E-01   35.2     0.00049559     -6914.1214145736 -5.00E-02
     8 OT DIIS     0.80E-01   33.9     0.00031343     -6914.1607515680 -3.93E-02
     9 OT DIIS     0.80E-01   32.1     0.00026652     -6914.1867571429 -2.60E-02
    10 OT DIIS     0.80E-01   30.7     0.00023136     -6914.2091693320 -2.24E-02
    11 OT DIIS     0.80E-01   35.4     0.00021382     -6914.2245338920 -1.54E-02
    12 OT DIIS     0.80E-01   34.1     0.00020982     -6914.2401306655 -1.56E-02
    13 OT DIIS     0.80E-01   30.5     0.00020722     -6914.2497892118 -9.66E-03
    14 OT SD       0.80E-01   35.2     0.00020731     -6914.2543298562 -4.54E-03
    15 OT SD       0.80E-01   35.1     0.00020923     -6914.2752124141 -2.09E-02
    16 OT SD       0.80E-01   34.0     0.00021353     -6914.2963936247 -2.12E-02
    17 OT SD       0.80E-01   32.0     0.00024159     -6914.3173332692 -2.09E-02
    18 OT SD       0.80E-01   30.7     0.00044699     -6914.3315289652 -1.42E-02
    19 OT DIIS     0.80E-01   35.5     0.00133152     -6914.2646303585  6.69E-02
    20 OT SD       0.80E-01   34.3     0.00033167     -6914.2907430675 -2.61E-02
    21 OT SD       0.80E-01   31.0     0.00040261     -6914.3202386086 -2.95E-02
    22 OT SD       0.80E-01   32.8     0.00082558     -6914.3176697927  2.57E-03
    23 OT DIIS     0.80E-01   32.5     0.00219897     -6914.0751278203  2.43E-01
    24 OT SD       0.80E-01   35.1     0.00022449     -6914.3051447388 -2.30E-01
    25 OT SD       0.80E-01   35.0     0.00030618     -6914.3192250647 -1.41E-02
    26 OT SD       0.80E-01   35.9     0.00069301     -6914.3118699068  7.36E-03
    27 OT DIIS     0.80E-01   33.8     0.00194892     -6914.1218605620  1.90E-01
    28 OT DIIS     0.80E-01   35.4     0.00019027     -6914.3353426890 -2.13E-01
    29 OT DIIS     0.80E-01   31.5     0.00018547     -6914.3394405767 -4.10E-03
    30 OT DIIS     0.80E-01   32.6     0.00018217     -6914.3522209401 -1.28E-02
    31 OT DIIS     0.80E-01   31.2     0.00018319     -6914.3586997436 -6.48E-03
    32 OT SD       0.80E-01   35.3     0.00018277     -6914.3637779118 -5.08E-03
    33 OT SD       0.80E-01   34.1     0.00018891     -6914.3797070858 -1.59E-02
    34 OT SD       0.80E-01   35.4     0.00022918     -6914.3950525344 -1.53E-02
    35 OT SD       0.80E-01   35.6     0.00046579     -6914.4022990084 -7.25E-03
    36 OT DIIS     0.80E-01   32.0     0.00136535     -6914.3220697765  8.02E-02
    37 OT SD       0.80E-01   33.9     0.00019313     -6914.3228008395 -7.31E-04
    38 OT SD       0.80E-01   31.2     0.00019348     -6914.3382870568 -1.55E-02
    39 OT SD       0.80E-01   24.1     0.00022009     -6914.3526271042 -1.43E-02
    40 OT SD       0.80E-01   29.2     0.00034749     -6914.3633614304 -1.07E-02
    41 OT SD       0.80E-01   35.0     0.00082989     -6914.3437582747  1.96E-02
    42 OT DIIS     0.80E-01   33.3     0.00229106     -6914.0660605786  2.78E-01
    43 OT SD       0.80E-01   30.7     0.00019825     -6914.2921057242 -2.26E-01
    44 OT SD       0.80E-01   35.0     0.00021873     -6914.3067025568 -1.46E-02
    45 OT SD       0.80E-01   35.1     0.00043332     -6914.3129398075 -6.24E-03
    46 OT DIIS     0.80E-01   34.1     0.00131173     -6914.2393307099  7.36E-02
    47 OT DIIS     0.80E-01   32.3     0.00041975     -6914.1702132501  6.91E-02
    48 OT DIIS     0.80E-01   30.5     0.00021049     -6914.2947063395 -1.24E-01
    49 OT DIIS     0.80E-01   35.4     0.00020831     -6914.3461163535 -5.14E-02
    50 OT DIIS     0.80E-01   34.3     0.00025920     -6914.3887804039 -4.27E-02
    51 OT DIIS     0.80E-01   30.7     0.00032055     -6914.4391480040 -5.04E-02
    52 OT DIIS     0.80E-01   33.9     0.00040730     -6914.4672175817 -2.81E-02
    53 OT DIIS     0.80E-01   33.9     0.00030160     -6914.4659876275  1.23E-03
    54 OT SD       0.80E-01   34.4     0.00024259     -6914.4494895460  1.65E-02
    55 OT DIIS     0.80E-01   32.8     0.00026852     -6914.4701033096 -2.06E-02
    56 OT DIIS     0.80E-01   30.5     0.00035864     -6914.4839389118 -1.38E-02
    57 OT SD       0.80E-01   35.3     0.00032428     -6914.5722067281 -8.83E-02
    58 OT SD       0.80E-01   34.7     0.00041579     -6914.5899898277 -1.78E-02
    59 OT DIIS     0.80E-01   31.0     0.00095189     -6914.5628284011  2.72E-02
    60 OT DIIS     0.80E-01   32.9     0.00027924     -6914.5252473485  3.76E-02
    61 OT DIIS     0.80E-01   31.9     0.00022470     -6914.5282327862 -2.99E-03
    62 OT SD       0.80E-01   35.6     0.00020513     -6914.5737978657 -4.56E-02
    63 OT SD       0.80E-01   34.1     0.00021939     -6914.5920677153 -1.83E-02
    64 OT SD       0.80E-01   30.8     0.00031700     -6914.6072845764 -1.52E-02
    65 OT DIIS     0.80E-01   35.0     0.00072292     -6914.5994974515  7.79E-03
    66 OT SD       0.80E-01   34.7     0.00020644     -6914.6095786559 -1.01E-02
    67 OT SD       0.80E-01   35.0     0.00022206     -6914.6284410739 -1.89E-02
    68 OT SD       0.80E-01   32.7     0.00034813     -6914.6431314802 -1.47E-02
    69 OT SD       0.80E-01   30.7     0.00088740     -6914.6217516479  2.14E-02
    70 OT DIIS     0.80E-01   35.6     0.00238223     -6914.2927510443  3.29E-01
    71 OT DIIS     0.80E-01   34.6     0.00019804     -6914.6498026166 -3.57E-01
    72 OT DIIS     0.80E-01   30.7     0.00019819     -6914.6608699171 -1.11E-02
    73 OT DIIS     0.80E-01   33.2     0.00019617     -6914.6940857174 -3.32E-02
    74 OT DIIS     0.80E-01   33.0     0.00019339     -6914.7076522773 -1.36E-02
    75 OT DIIS     0.80E-01   34.8     0.00018858     -6914.7304835818 -2.28E-02
    76 OT DIIS     0.80E-01   32.9     0.00018997     -6914.7603878513 -2.99E-02
    77 OT DIIS     0.80E-01   30.6     0.00019125     -6914.8012103223 -4.08E-02
    78 OT DIIS     0.80E-01   35.4     0.00029540     -6914.8490872348 -4.79E-02
    79 OT DIIS     0.80E-01   35.2     0.00018582     -6914.8566890898 -7.60E-03
    80 OT DIIS     0.80E-01   33.3     0.00034324     -6914.8643080386 -7.62E-03
    81 OT DIIS     0.80E-01   33.3     0.00015894     -6914.8698245905 -5.52E-03
    82 OT DIIS     0.80E-01   30.7     0.00023538     -6914.8790721725 -9.25E-03
    83 OT DIIS     0.80E-01   34.8     0.00007065     -6914.8847348179 -5.66E-03
    84 OT DIIS     0.80E-01   34.6     0.00007606     -6914.8876446205 -2.91E-03
    85 OT DIIS     0.80E-01   30.9     0.00005730     -6914.8907771866 -3.13E-03
    86 OT DIIS     0.80E-01   33.0     0.00005337     -6914.8929620547 -2.18E-03
    87 OT DIIS     0.80E-01   32.5     0.00005151     -6914.8954520945 -2.49E-03
    88 OT DIIS     0.80E-01   35.3     0.00005054     -6914.8981531398 -2.70E-03
    89 OT DIIS     0.80E-01   33.4     0.00005249     -6914.8995377703 -1.38E-03
    90 OT DIIS     0.80E-01   30.3     0.00004654     -6914.9002958588 -7.58E-04
    91 OT DIIS     0.80E-01   35.3     0.00004104     -6914.9036044732 -3.31E-03
    92 OT DIIS     0.80E-01   35.1     0.00003866     -6914.9045600527 -9.56E-04
    93 OT DIIS     0.80E-01   32.4     0.00004225     -6914.9049160051 -3.56E-04
    94 OT DIIS     0.80E-01   31.9     0.00003374     -6914.9065640196 -1.65E-03
    95 OT DIIS     0.80E-01   31.3     0.00003678     -6914.9070736531 -5.10E-04
    96 OT DIIS     0.80E-01   35.5     0.00002948     -6914.9076910732 -6.17E-04
    97 OT DIIS     0.80E-01   33.4     0.00003120     -6914.9082883072 -5.97E-04
    98 OT DIIS     0.80E-01   30.5     0.00002798     -6914.9087636840 -4.75E-04
    99 OT DIIS     0.80E-01   34.9     0.00002369     -6914.9095201468 -7.56E-04
   100 OT DIIS     0.80E-01   35.0     0.00002041     -6914.9097846667 -2.65E-04

  Leaving inner SCF loop after reaching   100 steps.


  Electronic density on regular grids:      -2432.0000000026       -0.0000000026
  Core density on regular grids:             2431.9999999988       -0.0000000012
  Total charge density on r-space grids:       -0.0000000037
  Total charge density g-space grids:          -0.0000000037

  Overlap energy of the core charge distribution:               0.00105681485091
  Self energy of the core charge distribution:             -16017.19408509233290
  Core Hamiltonian energy:                                   4292.76895140343913
  Hartree energy:                                            6138.15091480979390
  Exchange-correlation energy:                              -1326.55209592319284
  Dispersion energy:                                           -2.08452667930268

  Total energy:                                             -6914.90978466674551

  outer SCF iter =    1 RMS gradient =   0.20E-04 energy =      -6914.9097846667

  ----------------------------------- OT ---------------------------------------
  Minimizer      : DIIS                : direct inversion
                                         in the iterative subspace
                                         using   7 DIIS vectors
                                         safer DIIS on
  Preconditioner : FULL_SINGLE_INVERSE : inversion of 
                                         H + eS - 2*(Sc)(c^T*H*c+const)(Sc)^T
  Precond_solver : DEFAULT
  stepsize       :    0.08000000                  energy_gap     :    0.08000000
  eps_taylor     :   0.10000E-15                  max_taylor     :             4
  ----------------------------------- OT ---------------------------------------

  Step     Update method      Time    Convergence         Total energy    Change
  ------------------------------------------------------------------------------
     1 OT DIIS     0.80E-01   75.9     0.00003672     -6914.9099957246 -2.11E-04
     2 OT DIIS     0.80E-01   33.8     0.00008328     -6914.9102325682 -2.37E-04
     3 OT DIIS     0.80E-01   33.7     0.00003293     -6914.9105178483 -2.85E-04
     4 OT DIIS     0.80E-01   31.3     0.00003276     -6914.9108100103 -2.92E-04
     5 OT DIIS     0.80E-01   31.8     0.00003719     -6914.9111095354 -3.00E-04
     6 OT DIIS     0.80E-01   34.2     0.00002366     -6914.9113727685 -2.63E-04
     7 OT DIIS     0.80E-01   31.4     0.00001948     -6914.9115366006 -1.64E-04
     8 OT DIIS     0.80E-01   31.4     0.00001772     -6914.9116871476 -1.51E-04
     9 OT DIIS     0.80E-01   34.7     0.00001805     -6914.9117989711 -1.12E-04
    10 OT DIIS     0.80E-01   32.3     0.00001580     -6914.9119550871 -1.56E-04
    11 OT DIIS     0.80E-01   30.4     0.00001728     -6914.9121021854 -1.47E-04
    12 OT DIIS     0.80E-01   33.6     0.00001360     -6914.9122527651 -1.51E-04
    13 OT DIIS     0.80E-01   30.1     0.00001204     -6914.9123516411 -9.89E-05
    14 OT DIIS     0.80E-01   33.2     0.00001309     -6914.9124329397 -8.13E-05
    15 OT DIIS     0.80E-01   31.5     0.00001119     -6914.9124908977 -5.80E-05
    16 OT DIIS     0.80E-01   24.5     0.00001051     -6914.9125601633 -6.93E-05
    17 OT DIIS     0.80E-01   26.8     0.00000891     -6914.9126270241 -6.69E-05
    18 OT DIIS     0.80E-01   32.7     0.00000872     -6914.9126712785 -4.43E-05
    19 OT DIIS     0.80E-01   35.4     0.00000796     -6914.9127046052 -3.33E-05
    20 OT DIIS     0.80E-01   34.2     0.00000991     -6914.9127216617 -1.71E-05
    21 OT DIIS     0.80E-01   33.4     0.00000819     -6914.9127482561 -2.66E-05
    22 OT DIIS     0.80E-01   30.6     0.00000725     -6914.9127768268 -2.86E-05
    23 OT DIIS     0.80E-01   35.5     0.00000837     -6914.9128003982 -2.36E-05
    24 OT DIIS     0.80E-01   35.3     0.00000702     -6914.9128195029 -1.91E-05
    25 OT DIIS     0.80E-01   33.2     0.00000703     -6914.9128282194 -8.72E-06
    26 OT DIIS     0.80E-01   32.2     0.00000718     -6914.9128330762 -4.86E-06
    27 OT DIIS     0.80E-01   30.9     0.00000618     -6914.9128412451 -8.17E-06
    28 OT DIIS     0.80E-01   35.8     0.00000666     -6914.9128567586 -1.55E-05
    29 OT DIIS     0.80E-01   34.3     0.00000653     -6914.9128561720  5.87E-07
    30 OT DIIS     0.80E-01   30.5     0.00000590     -6914.9128576089 -1.44E-06
    31 OT DIIS     0.80E-01   34.8     0.00000575     -6914.9128636711 -6.06E-06
    32 OT DIIS     0.80E-01   33.8     0.00000482     -6914.9128658284 -2.16E-06
    33 OT DIIS     0.80E-01   33.1     0.00000434     -6914.9128706535 -4.83E-06
    34 OT DIIS     0.80E-01   31.9     0.00000444     -6914.9128725347 -1.88E-06
    35 OT DIIS     0.80E-01   31.1     0.00000406     -6914.9128741758 -1.64E-06
    36 OT DIIS     0.80E-01   35.7     0.00000400     -6914.9128783324 -4.16E-06
    37 OT DIIS     0.80E-01   34.3     0.00000413     -6914.9128804403 -2.11E-06
    38 OT DIIS     0.80E-01   30.7     0.00000404     -6914.9128828004 -2.36E-06
    39 OT DIIS     0.80E-01   34.8     0.00000403     -6914.9128859972 -3.20E-06
    40 OT DIIS     0.80E-01   34.8     0.00000387     -6914.9128865232 -5.26E-07
    41 OT DIIS     0.80E-01   35.1     0.00000347     -6914.9128902598 -3.74E-06
    42 OT DIIS     0.80E-01   33.5     0.00000360     -6914.9128923854 -2.13E-06
    43 OT DIIS     0.80E-01   30.7     0.00000350     -6914.9128932565 -8.71E-07
    44 OT DIIS     0.80E-01   35.3     0.00000327     -6914.9128952089 -1.95E-06
    45 OT DIIS     0.80E-01   35.1     0.00000323     -6914.9128970525 -1.84E-06
    46 OT DIIS     0.80E-01   34.1     0.00000315     -6914.9128989474 -1.89E-06
    47 OT DIIS     0.80E-01   31.2     0.00000313     -6914.9129009742 -2.03E-06
    48 OT DIIS     0.80E-01   31.2     0.00000314     -6914.9129013379 -3.64E-07
    49 OT DIIS     0.80E-01   35.7     0.00000288     -6914.9129041429 -2.81E-06
    50 OT DIIS     0.80E-01   34.3     0.00000300     -6914.9129066983 -2.56E-06
    51 OT DIIS     0.80E-01   30.7     0.00000312     -6914.9129080115 -1.31E-06
    52 OT DIIS     0.80E-01   34.8     0.00000300     -6914.9129087747 -7.63E-07
    53 OT DIIS     0.80E-01   34.4     0.00000295     -6914.9129108501 -2.08E-06
    54 OT DIIS     0.80E-01   34.9     0.00000286     -6914.9129128138 -1.96E-06
    55 OT DIIS     0.80E-01   33.1     0.00000284     -6914.9129141301 -1.32E-06
    56 OT DIIS     0.80E-01   30.6     0.00000285     -6914.9129143276 -1.98E-07
    57 OT DIIS     0.80E-01   35.1     0.00000257     -6914.9129160850 -1.76E-06
    58 OT DIIS     0.80E-01   34.9     0.00000259     -6914.9129182604 -2.18E-06
    59 OT DIIS     0.80E-01   31.4     0.00000269     -6914.9129197975 -1.54E-06
    60 OT DIIS     0.80E-01   32.6     0.00000267     -6914.9129200236 -2.26E-07
    61 OT DIIS     0.80E-01   32.6     0.00000263     -6914.9129220557 -2.03E-06
    62 OT DIIS     0.80E-01   23.8     0.00000261     -6914.9129242323 -2.18E-06
    63 OT DIIS     0.80E-01   27.0     0.00000266     -6914.9129253758 -1.14E-06
    64 OT DIIS     0.80E-01   33.9     0.00000274     -6914.9129260524 -6.77E-07
    65 OT DIIS     0.80E-01   32.9     0.00000248     -6914.9129271055 -1.05E-06
    66 OT DIIS     0.80E-01   30.6     0.00000243     -6914.9129291175 -2.01E-06
    67 OT SD       0.80E-01   35.4     0.00000250     -6914.9129307016 -1.58E-06
    68 OT DIIS     0.80E-01   35.2     0.00000699     -6914.9129313131 -6.12E-07
    69 OT SD       0.80E-01   31.7     0.00000291     -6914.9129375415 -6.23E-06
    70 OT DIIS     0.80E-01   32.4     0.00001113     -6914.9129352675  2.27E-06
    71 OT DIIS     0.80E-01   31.5     0.00000331     -6914.9129528531 -1.76E-05
    72 OT DIIS     0.80E-01   35.6     0.00000343     -6914.9129533010 -4.48E-07
    73 OT DIIS     0.80E-01   34.3     0.00000301     -6914.9129690008 -1.57E-05
    74 OT SD       0.80E-01   30.6     0.00000270     -6914.9129842985 -1.53E-05
    75 OT SD       0.80E-01   35.0     0.00000804     -6914.9129831254  1.17E-06
    76 OT DIIS     0.80E-01   34.9     0.00003974     -6914.9129254618  5.77E-05
    77 OT DIIS     0.80E-01   33.8     0.00000175     -6914.9129866494 -6.12E-05
    78 OT DIIS     0.80E-01   31.9     0.00000197     -6914.9129927118 -6.06E-06
    79 OT DIIS     0.80E-01   31.3     0.00000190     -6914.9129926979  1.39E-08
    80 OT DIIS     0.80E-01   35.7     0.00000190     -6914.9129936286 -9.31E-07
    81 OT SD       0.80E-01   34.4     0.00000187     -6914.9129984666 -4.84E-06
    82 OT DIIS     0.80E-01   30.5     0.00000546     -6914.9129982217  2.45E-07
    83 OT DIIS     0.80E-01   34.5     0.00000176     -6914.9130020212 -3.80E-06
    84 OT DIIS     0.80E-01   34.6     0.00000231     -6914.9130109584 -8.94E-06
    85 OT DIIS     0.80E-01   35.1     0.00000198     -6914.9130119986 -1.04E-06
    86 OT SD       0.80E-01   33.4     0.00000192     -6914.9130121407 -1.42E-07
    87 OT DIIS     0.80E-01   30.8     0.00000810     -6914.9130105126  1.63E-06
    88 OT SD       0.80E-01   35.4     0.00000234     -6914.9130259959 -1.55E-05
    89 OT DIIS     0.80E-01   35.0     0.00000753     -6914.9130242843  1.71E-06
    90 OT DIIS     0.80E-01   33.1     0.00000151     -6914.9130221859  2.10E-06
    91 OT SD       0.80E-01   31.7     0.00000166     -6914.9130263920 -4.21E-06
    92 OT DIIS     0.80E-01   32.1     0.00000634     -6914.9130253344  1.06E-06
    93 OT SD       0.80E-01   35.6     0.00000189     -6914.9130330687 -7.73E-06
    94 OT DIIS     0.80E-01   34.2     0.00000729     -6914.9130315355  1.53E-06
    95 OT SD       0.80E-01   30.6     0.00000126     -6914.9130357245 -4.19E-06
    96 OT DIIS     0.80E-01   33.3     0.00000442     -6914.9130353432  3.81E-07
    97 OT DIIS     0.80E-01   33.7     0.00000121     -6914.9130367945 -1.45E-06
    98 OT SD       0.80E-01   34.6     0.00000137     -6914.9130410228 -4.23E-06
    99 OT DIIS     0.80E-01   35.6     0.00000279     -6914.9130409780  4.48E-08
   100 OT SD       0.80E-01   36.0     0.00000124     -6914.9130428999 -1.92E-06

  Leaving inner SCF loop after reaching   100 steps.


  Electronic density on regular grids:      -2432.0000000026       -0.0000000026
  Core density on regular grids:             2431.9999999988       -0.0000000012
  Total charge density on r-space grids:       -0.0000000038
  Total charge density g-space grids:          -0.0000000038

  Overlap energy of the core charge distribution:               0.00105681485091
  Self energy of the core charge distribution:             -16017.19408509233290
  Core Hamiltonian energy:                                   4292.81780092034478
  Hartree energy:                                            6138.12015399181018
  Exchange-correlation energy:                              -1326.57344285526869
  Dispersion energy:                                           -2.08452667930268

  Total energy:                                             -6914.91304289989876

  outer SCF iter =    2 RMS gradient =   0.12E-05 energy =      -6914.9130428999

  ----------------------------------- OT ---------------------------------------
  Minimizer      : DIIS                : direct inversion
                                         in the iterative subspace
                                         using   7 DIIS vectors
                                         safer DIIS on
  Preconditioner : FULL_SINGLE_INVERSE : inversion of 
                                         H + eS - 2*(Sc)(c^T*H*c+const)(Sc)^T
  Precond_solver : DEFAULT
[...]

 *******************************************************************************
 ***                    GEOMETRY OPTIMIZATION COMPLETED                      ***
 *******************************************************************************

                    Reevaluating energy at the minimum

 Number of electrons:                                                       2432
 Number of occupied orbitals:                                               1216
 Number of molecular orbitals:                                              1216

 Number of orbital functions:                                               4983
 Number of independent orbital functions:                                   4983

 Extrapolation method: ASPC


 SCF WAVEFUNCTION OPTIMIZATION

  ----------------------------------- OT ---------------------------------------
  Minimizer      : DIIS                : direct inversion
                                         in the iterative subspace
                                         using   7 DIIS vectors
                                         safer DIIS on
  Preconditioner : FULL_SINGLE_INVERSE : inversion of 
                                         H + eS - 2*(Sc)(c^T*H*c+const)(Sc)^T
  Precond_solver : DEFAULT
  stepsize       :    0.08000000                  energy_gap     :    0.08000000
  eps_taylor     :   0.10000E-15                  max_taylor     :             4
  ----------------------------------- OT ---------------------------------------

  Step     Update method      Time    Convergence         Total energy    Change
  ------------------------------------------------------------------------------
     1 OT DIIS     0.80E-01   12.8     0.00001101     -6923.0011094772 -6.92E+03
     2 OT DIIS     0.80E-01   12.2     0.00001148     -6923.0011407045 -3.12E-05
     3 OT DIIS     0.80E-01   12.3     0.00001599     -6923.0011427712 -2.07E-06
     4 OT DIIS     0.80E-01   12.2     0.00000795     -6923.0011559858 -1.32E-05
     5 OT DIIS     0.80E-01   12.3     0.00000582     -6923.0011614527 -5.47E-06
     6 OT DIIS     0.80E-01   12.3     0.00000412     -6923.0011645371 -3.08E-06
     7 OT DIIS     0.80E-01   12.4     0.00000229     -6923.0011656971 -1.16E-06
     8 OT DIIS     0.80E-01   12.4     0.00000153     -6923.0011660866 -3.90E-07
     9 OT DIIS     0.80E-01   12.3     0.00000115     -6923.0011663970 -3.10E-07
    10 OT DIIS     0.80E-01   12.3     0.00000094     -6923.0011665768 -1.80E-07

  *** SCF run converged in    10 steps ***


  Electronic density on regular grids:      -2431.9999998052        0.0000001948
  Core density on regular grids:             2431.9999999988       -0.0000000012
  Total charge density on r-space grids:        0.0000001937
  Total charge density g-space grids:           0.0000001937

  Overlap energy of the core charge distribution:               0.00000817665466
  Self energy of the core charge distribution:             -16017.19408509233290
  Core Hamiltonian energy:                                   4265.21058832285689
  Hartree energy:                                            6151.58399315209226
  Exchange-correlation energy:                              -1320.58270818105916
  Dispersion energy:                                           -2.01896295497101

  Total energy:                                             -6923.00116657675972

  outer SCF iter =    1 RMS gradient =   0.94E-06 energy =      -6923.0011665768
  outer SCF loop converged in   1 iterations or   10 steps


 ENERGY| Total FORCE_EVAL ( QS ) energy [hartree]          -6923.001166576759715

 -------------------------------------------------------------------------------
 -                                                                             -
 -                                DBCSR STATISTICS                             -
 -                                                                             -
 -------------------------------------------------------------------------------
 COUNTER                                    TOTAL       BLAS       SMM       ACC
 flops     9 x     9 x    32        1209136896000       0.0%      0.0%    100.0%     
 flops    14 x     9 x    32        4559708160000       0.0%      0.0%    100.0%     
 flops     9 x    14 x    32        4559708160000       0.0%      0.0%    100.0%     
 flops     9 x    32 x     9        7093678768128       0.0%      0.0%    100.0%     
 flops     9 x    13 x    32       14289914635776       0.0%      0.0%    100.0%     
 flops    13 x     9 x    32       14395382292096       0.0%      0.0%    100.0%     
 flops    14 x    14 x    32       17952087193600       0.0%      0.0%    100.0%     
 flops    14 x    32 x     9       27586528542720       0.0%      0.0%    100.0%     
 flops     9 x    32 x    14       27586528542720       0.0%      0.0%    100.0%     
 flops    32 x    32 x     9       37331343507456       0.0%      0.0%    100.0%     
 flops     9 x    32 x    32       46587055177728       0.0%      0.0%    100.0%     
 flops    13 x    14 x    32       54281652355840       0.0%      0.0%    100.0%     
 flops    14 x    13 x    32       54470657230080       0.0%      0.0%    100.0%     
 flops    13 x    32 x     9       87157086591744       0.0%      0.0%    100.0%     
 flops     9 x    32 x    13       87157086591744       0.0%      0.0%    100.0%     
 flops    14 x    32 x    14      107273679851520       0.0%      0.0%    100.0%     
 flops    13 x    13 x    32      131954262663808       0.0%      0.0%    100.0%     
 flops    32 x    32 x    14      145177446973440       0.0%      0.0%    100.0%     
 flops    14 x    32 x    32      181171881246720       0.0%      0.0%    100.0%     
 flops    32 x    32 x    32      294343676526592       0.0%      0.0%    100.0%     
 flops    14 x    32 x    13      333072632815104       0.0%      0.0%    100.0%     
 flops    13 x    32 x    14      333072632815104       0.0%      0.0%    100.0%     
 flops    32 x    32 x    13      463401225830400       0.0%      0.0%    100.0%     
 flops    13 x    32 x    32      578294174515200       0.0%      0.0%    100.0%     
 flops    13 x    32 x    13      885268219190784       0.0%      0.0%    100.0%     
 flops inhomo. stacks                           0       0.0%      0.0%      0.0%
 flops total                         3.939247E+15       0.0%      0.0%    100.0%
 flops max/rank                      3.939247E+15       0.0%      0.0%    100.0%
 matmuls inhomo. stacks                         0       0.0%      0.0%      0.0%
 matmuls total                       266793997764       0.0%      0.0%    100.0%
 number of processed stacks              17109468       0.0%      0.0%    100.0%
 average stack size                                     0.0       0.0   15593.4
 marketing flops                     4.580215E+15
 -------------------------------------------------------------------------------
 # multiplications                         227782
 max memory usage/rank              12.412248E+09
 # max total images/rank                        1
 # max 3D layers                                1
 # MPI messages exchanged                       0
 -------------------------------------------------------------------------------
 -                                                                             -
 -                      DBCSR MESSAGE PASSING PERFORMANCE                      -
 -                                                                             -
 -------------------------------------------------------------------------------
 ROUTINE             CALLS      AVE VOLUME [Bytes]
 MP_Bcast               26                     12.
 MP_Allreduce       821592                      9.
 MP_Alltoall        702024                4753885.
 MP_ISend           910136                 351055.
 MP_IRecv           910136                 351055.
 -------------------------------------------------------------------------------

 -------------------------------------------------------------------------------
 -                                                                             -
 -                                DBM STATISTICS                               -
 -                                                                             -
 -------------------------------------------------------------------------------
    M  x    N  x    K                                          COUNT     PERCENT
 -------------------------------------------------------------------------------

 -------------------------------------------------------------------------------
 -                                                                             -
 -                                GRID STATISTICS                              -
 -                                                                             -
 -------------------------------------------------------------------------------
 LP    KERNEL             BACKEND                              COUNT     PERCENT
 3     collocate general  GPU                             2050731983      15.96%
 3     integrate general  GPU                             2019050658      15.72%
 2     collocate general  GPU                              219428583       1.71%
 2     integrate general  GPU                              215624082       1.68%
 5     integrate general  GPU                               71765827       0.56%
 0     collocate general  CPU                                  75465       0.00%
 1     integrate general  CPU                                  75078       0.00%
 4     collocate general  GPU                             4152922393      32.33%
 4     integrate general  GPU                             4116073451      32.04%
 -------------------------------------------------------------------------------

 MEMORY| Estimated peak process memory [MiB]                               11815

 -------------------------------------------------------------------------------
 -                                                                             -
 -                         MESSAGE PASSING PERFORMANCE                         -
 -                                                                             -
 -------------------------------------------------------------------------------

 ROUTINE             CALLS      AVE VOLUME [Bytes]
 MP_Group                4
 MP_Bcast           223733                   7069.
 MP_Allreduce       556275                   6754.
 MP_Sync              3188
 -------------------------------------------------------------------------------


 -------------------------------------------------------------------------------
 -                                                                             -
 -                           R E F E R E N C E S                               -
 -                                                                             -
 -------------------------------------------------------------------------------
 
 CP2K version 2025.1, the CP2K developers group (2025).
 CP2K is freely available from https://www.cp2k.org/ .
 
 T. D. Kuehne, M. Iannuzzi, M. Del Ben, V. V. Rybkin, P. Seewald, F. Stein, T. 
 Laino, R. Z. Khaliullin, O. Schuett, F. Schiffmann, D. Golze, J. Wilhelm, S. 
 Chulkov, M. H. Bani-Hashemian, V. Weber, U. Borstnik, M. Taillefumier, A. S. 
 Jakobovits, A. Lazzaro, H. Pabst, T. Mueller, R. Schade, M. Guidon, S. 
 Andermatt, N. Holmberg, G. K. Schenter, A. Hehn, A. Bussy, F. Belleflamme, G. 
 Tabacchi, A. Gloess, M. Lass, I. Bethune, C. J. Mundy, C. Plessl, M. Watkins, 
 J. VandeVondele, M. Krack, J. Hutter.
 J. Chem. Phys. 152, 194103 (2020).
 CP2K: An electronic structure and molecular dynamics software package - 
 Quickstep: Efficient and accurate electronic structure calculations.
 https://doi.org/10.1063/5.0007045

 E. Caldeweyher, J. M. Mewes, S. Ehlert, S. Grimme.
 Phys. Chem. Chem. Phys. 22, 8499-8512 (2020).
 Extension and evaluation of the D4 London-dispersion model for periodic 
 systems.
 https://doi.org/10.1039/d0cp00502a

 E. Caldeweyher, S. Ehlert, A. Hansen, H. Neugebauer, S. Spicher, C. Bannwarth, 
 S. Grimme.
 J. Chem. Phys. 150, 154122 (2019).
 A generally applicable atomic-charge dependent London dispersion correction.
 https://doi.org/10.1063/1.5090222

 E. Caldeweyher, C. Bannwarth, S. Grimme.
 J. Chem. Phys. 147, 034112 (2017).
 Extension of the D3 dispersion coefficient model.
 https://doi.org/10.1063/1.4993215

 O. Schuett, P. Messmer, J. Hutter, J. VandeVondele.
 Electronic Structure Calculations on Graphics Processing Units, 173-190 (2016).
 GPU-Accelerated Sparse Matrix-Matrix Multiplication for Linear Scaling Density 
 Functional Theory.
 https://doi.org/10.1002/9781118670712.ch8

 A. Heinecke, G. Henry, M. Hutchinson, H. Pabst.
 Proceedings of Intl. Supercomputing Conference, 981-991 (2016).
 LIBXSMM: Accelerating Small Matrix Multiplications by Runtime Code Generation.
 https://doi.org/10.1109/SC.2016.83

 J. Hutter, M. Iannuzzi, F. Schiffmann, J. VandeVondele.
 WIREs Comput Mol Sci. 4, 15-25 (2014).
 CP2K: atomistic simulations of condensed matter systems.
 https://doi.org/10.1002/wcms.1159

 U. Borstnik, J. VandeVondele, V. Weber, J. Hutter.
 Parallel Comput. 40, 47-58 (2014).
 Sparse matrix multiplication: The distributed block-compressed sparse row 
 library.
 https://doi.org/10.1016/j.parco.2014.03.012

 A. Marek, V. Blum, R. Johanni, V. Havu, B. Lang, T. Auckenthaler, A. Heinecke, 
 H. Bungartz, H. Lederer.
 J. Phys. Condens. Matter 26, 213201 (2014).
 The ELPA library: scalable parallel eigenvalue solutions for electronic 
 structure theory and computational science.
 https://doi.org/10.1088/0953-8984/26/21/213201

 J. VandeVondele, J. Hutter.
 J. Chem. Phys. 127, 114105 (2007).
 Gaussian basis sets for accurate calculations on molecular systems in gas and 
 condensed phases.
 https://doi.org/10.1063/1.2770708

 T. D. Khne, M. Krack, F. R. Mohamed, M. Parrinello.
 Phys. Rev. Lett. 98, 066401 (2007).
 Efficient and accurate Car-Parrinello-like approach to Born-Oppenheimer 
 molecular dynamics.
 https://doi.org/10.1103/PhysRevLett.98.066401

 J. VandeVondele, M. Krack, F. Mohamed, M. Parrinello, T. Chassaing, J. Hutter.
 Comput. Phys. Commun. 167, 103-128 (2005).
 QUICKSTEP: Fast and accurate density functional calculations using a mixed 
 Gaussian and plane waves approach.
 https://doi.org/10.1016/j.cpc.2004.12.014

 M. Krack.
 Theor. Chem. Acc. 114, 145-152 (2005).
 Pseudopotentials for H to Kr optimized for gradient-corrected 
 exchange-correlation functionals.
 https://doi.org/10.1007/s00214-005-0655-y

 M. Frigo, S. G. Johnson.
 Proc. IEEE 93, 216-231 (2005).
 The design and implementation of FFTW3.
 https://doi.org/10.1109/JPROC.2004.840301

 J. Kolafa.
 J. Comput. Chem. 25, 335-342 (2004).
 Time-reversible always stable predictor-corrector method for molecular dynamics 
 of polarizable molecules.
 https://doi.org/10.1002/jcc.10385

 J. VandeVondele, J. Hutter.
 J. Chem. Phys. 118, 4365-4369 (2003).
 An efficient orbital transformation method for electronic structure 
 calculations.
 https://doi.org/10.1063/1.1543154

 C. Hartwigsen, S. Goedecker, J. Hutter.
 Phys. Rev. B 58, 3641-3662 (1998).
 Relativistic separable dual-space Gaussian pseudopotentials from H to Rn.
 https://doi.org/10.1103/PhysRevB.58.3641

 G. Lippert, J. Hutter, M. Parrinello.
 Mol. Phys. 92, 477-487 (1997).
 A hybrid Gaussian and plane wave density functional scheme.
 https://doi.org/10.1080/002689797170220

 S. Goedecker, M. Teter, J. Hutter.
 Phys. Rev. B 54, 1703-1710 (1996).
 Separable dual-space Gaussian pseudopotentials.
 https://doi.org/10.1103/PhysRevB.54.1703

 J. P. Perdew, K. Burke, M. Ernzerhof.
 Phys. Rev. Lett. 77, 3865-3868 (1996).
 Generalized gradient approximation made simple.
 https://doi.org/10.1103/PhysRevLett.77.3865

 R. H. Byrd, P. H. Lu, J. Nocedal, C. Y. Zhu.
 SIAM J. Sci. Comput. 16, 1190-1208 (1995).
 A Limited Memory Algorithm for Bound Constrained Optimization.
 https://doi.org/10.1137/0916069


 -------------------------------------------------------------------------------
 -                                                                             -
 -                                T I M I N G                                  -
 -                                                                             -
 -------------------------------------------------------------------------------
 SUBROUTINE                       CALLS  ASD         SELF TIME        TOTAL TIME
                                MAXIMUM       AVERAGE  MAXIMUM  AVERAGE  MAXIMUM
 CP2K                                 1  1.0      0.3      0.3 234535.2 234535.2
 cp_geo_opt                           1  2.0      0.0      0.0 234531.4 234531.4
 geoopt_lbfgs                         1  3.0      0.0      0.0 234531.4 234531.4
 cp_eval_at                         195  5.0      0.0      0.0 234528.9 234528.9
 cp_opt_gopt_step                   188  4.0      0.1      0.1 234395.3 234395.3
 qs_forces                          194  6.0      0.0      0.0 234392.9 234392.9
 qs_energies                        195  7.0      0.0      0.0 230766.8 230766.8
 scf_env_do_scf                     195  8.0      0.0      0.0 228575.3 228575.3
 scf_env_do_scf_inner_loop        10988  9.0      4.0      4.0 224634.3 224634.3
 rebuild_ks_matrix                11182 10.9      0.1      0.1 149968.2 149968.2
 qs_ks_build_kohn_sham_matrix     11182 11.9      1.8      1.8 149968.2 149968.2
 qs_ks_update_qs_env              11236 10.0      0.1      0.1 146875.9 146875.9
 sum_up_and_integrate             11182 12.9      0.3      0.3 128323.5 128323.5
 integrate_v_rspace               11182 13.9     63.8     63.8 128142.8 128142.8
 grid_integrate_task_list         11182 14.9 126720.3 126720.3 126720.3 126720.3
 qs_rho_update_rho_low            11183 10.0      0.1      0.1  65991.1  65991.1
 calculate_rho_elec               11183 11.0    438.7    438.7  65991.0  65991.0
 grid_collocate_task_list         11183 12.0  63300.9  63300.9  63300.9  63300.9
 qs_scf_new_mos                   10988 10.0      0.1      0.1  15302.0  15302.0
 qs_scf_loop_do_ot                10988 11.0      0.1      0.1  15301.9  15301.9
 qs_vxc_create                    11182 12.9      0.2      0.2  14819.6  14819.6
 xc_vxc_pw_create                 11182 13.9    774.6    774.6  14819.4  14819.4
 dbcsr_multiply_generic          227782 15.1     40.1     40.1  14733.3  14733.3
 ot_scf_mini                      10988 12.0      0.5      0.5  14116.6  14116.6
 multiply_cannon                 227782 16.1    333.6    333.6   9932.0   9932.0
 multiply_cannon_loop            227782 17.1    555.0    555.0   9143.2   9143.2
 xc_rho_set_and_dset_create       11182 14.9   1091.7   1091.7   8763.7   8763.7
 fft_wrap_pw1pw2                 190294 15.3      4.6      4.6   8480.5   8480.5
 ot_mini                          10988 13.0      0.1      0.1   8474.1   8474.1
 fft_wrap_pw1pw2_200             123199 16.7      0.5      0.5   8068.2   8068.2
 multiply_cannon_multrec         227782 18.1   4632.1   4632.1   7506.9   7506.9
 xc_pw_derive                     67092 15.9      1.3      1.3   7408.9   7408.9
 qs_ot_get_derivative             10988 14.0      0.1      0.1   5561.7   5561.7
 xc_pw_divergence                 11182 14.9      0.8      0.8   4980.4   4980.4
 -------------------------------------------------------------------------------

 The number of warnings for this run is : 0
 
 -------------------------------------------------------------------------------
  **** **** ******  **  PROGRAM ENDED AT                 2025-10-20 13:50:49.028
 ***** ** ***  *** **   PROGRAM RAN ON                              e919e75df916
 **    ****   ******    PROGRAM RAN BY                                 <unknown>
 ***** **    ** ** **   PROGRAM PROCESS ID                                   614
  **** **  *******  **  PROGRAM STOPPED IN                             /mnt/cp2k
