 DBCSR| CPU Multiplication driver                                           XSMM (U)
 DBCSR| Multrec recursion limit                                              512 (U)
 DBCSR| Multiplication stack size                                          30000 (D)
 DBCSR| Maximum elements for images                                    UNLIMITED (U)
 DBCSR| Multiplicative factor virtual images                                   1 (U)
 DBCSR| Use multiplication densification                                       F (D)
 DBCSR| Multiplication size stacks                                             3 (U)
 DBCSR| Use memory pool for CPU allocation                                     F (U)
 DBCSR| Number of 3D layers                                               SINGLE (U)
 DBCSR| Use MPI memory allocation                                              F (U)
 DBCSR| Use RMA algorithm                                                      F (U)
 DBCSR| Use Communication thread                                               T (U)
 DBCSR| Communication thread load                                             30 (D)
 DBCSR| MPI: My process id                                                     0
 DBCSR| MPI: Number of processes                                               1
 DBCSR| OMP: Current number of threads                                        16
 DBCSR| OMP: Max number of threads                                            16
 DBCSR| ACC: Number of devices/node                                            1
 DBCSR| ACC: Number of stack-buffers per thread                                8 (U)
 DBCSR| ACC: Avoid driver after busy                                           F (U)
 DBCSR| ACC: Process inhomogeneous stacks                                      T (U)
 DBCSR| ACC: Min. flop for processing                                          0 (U)
 DBCSR| ACC: Use G2G algorithm                                                 F (D)
 DBCSR| ACC: Min. flop for sorting                                          4000 (U)
 DBCSR| ACC: Number of binning bins                                         4096 (U)
 DBCSR| ACC: Size of binning bins                                             16 (U)
 DBCSR| ACC: GPU backend is enabled                                            T (D)
 DBCSR| Split modifier for TAS multiplication algorithm                  1.0E+00 (U)


  **** **** ******  **  PROGRAM STARTED AT               2025-11-04 19:53:56.028
 ***** ** ***  *** **   PROGRAM STARTED ON                          0f343c5867dd
 **    ****   ******    PROGRAM STARTED BY                             <unknown>
 ***** **    ** ** **   PROGRAM PROCESS ID                                   614
  **** **  *******  **  PROGRAM STARTED IN                             /mnt/cp2k

 CP2K| version string:                                       CP2K version 2025.1
 CP2K| source code revision number:                                  git:9635df4
 CP2K| cp2kflags: omp libint fftw3 libxc libgrpp pexsi elpa elpa_nvidia_gpu para
 CP2K|            llel scalapack cosma quip xsmm dbcsr_acc plumed2 spglib libdft
 CP2K|            td4 sirius libvori libbqb offload_cuda spla_gemm_offloading li
 CP2K|            ibvdwxc hdf5 trexio
 CP2K| is freely available from                            https://www.cp2k.org/
 CP2K| Program compiled at                          Tue Jan 14 21:07:27 UTC 2025
 CP2K| Program compiled on                                          eb3a76499499
 CP2K| Program compiled for                                           local_cuda
 CP2K| Data directory path                                        /opt/cp2k/data
 CP2K| Input file name                                           HAP_200_opt.inp

 GLOBAL| Force Environment number                                              1
 GLOBAL| Basis set file name                                        BASIS_MOLOPT
 GLOBAL| Potential file name                                      GTH_POTENTIALS
 GLOBAL| MM Potential file name                                     MM_POTENTIAL
 GLOBAL| Coordinate file name                                  HAP_200_clean.xyz
 GLOBAL| Method name                                                        CP2K
 GLOBAL| Project name                                                HAP_200_opt
 GLOBAL| Run type                                                        GEO_OPT
 GLOBAL| FFT library                                                       FFTW3
 GLOBAL| Diagonalization library                                            ELPA
 GLOBAL| DGEMM library                                                      SPLA
 GLOBAL| Minimum number of eigenvectors for ELPA usage                        16
 GLOBAL| Orthonormality check for eigenvectors                          DISABLED
 GLOBAL| Matrix multiplication library                                     COSMA
 GLOBAL| All-to-all communication in single precision                          F
 GLOBAL| FFTs using library dependent lengths                                  F
 GLOBAL| Grid backend                                                       AUTO
 GLOBAL| Global print level                                                  LOW
 GLOBAL| MPI I/O enabled                                                       T
 GLOBAL| Total number of message passing processes                             1
 GLOBAL| Number of threads for this process                                   16
 GLOBAL| This output is from process                                           0
 GLOBAL| OpenMP stack size per thread (OMP_STACKSIZE)                        16M
 GLOBAL| CPU model name                              Intel(R) Core(TM) i7-14700K
 GLOBAL| CPUID                                                              1002
 GLOBAL| Compiled for CPUID                                                    0

 *** HINT in environment.F:928 :: The compiler target flags (generic) used ***
 *** to build this binary cannot exploit all extensions of this CPU model  ***
 *** (x86_avx2). Consider compiler target flags as part of FCFLAGS and     ***
 *** CFLAGS (ARCH file).                                                   ***


 MEMORY| system memory details [Kb]
 MEMORY|                        rank 0           min           max       average
 MEMORY| MemTotal             32768664      32768664      32768664      32768664
 MEMORY| MemFree               4756124       4756124       4756124       4756124
 MEMORY| Buffers                 45216         45216         45216         45216
 MEMORY| Cached                6142492       6142492       6142492       6142492
 MEMORY| Slab                   159636        159636        159636        159636
 MEMORY| SReclaimable            59516         59516         59516         59516
 MEMORY| MemLikelyFree        11003348      11003348      11003348      11003348


 GENERATE|  Preliminary Number of Bonds generated:                             0
 GENERATE|  Achieved consistency in connectivity generation.

 *******************************************************************************
 *******************************************************************************
 **                                                                           **
 **     #####                         ##              ##                      **
 **    ##   ##            ##          ##              ##                      **
 **   ##     ##                       ##            ######                    **
 **   ##     ##  ##   ##  ##   #####  ##  ##   ####   ##    #####    #####    **
 **   ##     ##  ##   ##  ##  ##      ## ##   ##      ##   ##   ##  ##   ##   **
 **   ##  ## ##  ##   ##  ##  ##      ####     ###    ##   ######   ######    **
 **    ##  ###   ##   ##  ##  ##      ## ##      ##   ##   ##       ##        **
 **     #######   #####   ##   #####  ##  ##  ####    ##    #####   ##        **
 **           ##                                                    ##        **
 **                                                                           **
 **                                                ... make the atoms dance   **
 **                                                                           **
 **            Copyright (C) by CP2K developers group (2000-2025)             **
 **                      J. Chem. Phys. 152, 194103 (2020)                    **
 **                                                                           **
 *******************************************************************************


 TOTAL NUMBERS AND MAXIMUM NUMBERS

  Total number of            - Atomic kinds:                                   5
                             - Atoms:                                        387
                             - Shell sets:                                   387
                             - Shells:                                      2015
                             - Primitive Cartesian functions:               2031
                             - Cartesian basis functions:                   5338
                             - Spherical basis functions:                   4983

  Maximum angular momentum of- Orbital basis functions:                        2
                             - Local part of the GTH pseudopotential:          2
                             - Non-local part of the GTH pseudopotential:      3


 SCF PARAMETERS         Density guess:                                    ATOMIC
                        --------------------------------------------------------
                        max_scf:                                             100
                        max_scf_history:                                       0
                        max_diis:                                              4
                        --------------------------------------------------------
                        eps_scf:                                        1.00E-06
                        eps_scf_history:                                0.00E+00
                        eps_diis:                                       1.00E-01
                        eps_eigval:                                     1.00E-05
                        --------------------------------------------------------
                        level_shift [a.u.]:                             0.000000
                        --------------------------------------------------------
                        Outer loop SCF in use 
                        No variables optimised in outer loop
                        eps_scf                                         1.00E-06
                        max_scf                                               50
                        No outer loop optimization
                        step_size                                       5.00E-01

 *******************************************************************************
 ***                     STARTING GEOMETRY OPTIMIZATION                      ***
 ***                                 L-BFGS                                  ***
 *******************************************************************************

 --------------------------
 OPTIMIZATION STEP:      1
 --------------------------

 Number of electrons:                                                       2432
 Number of occupied orbitals:                                               1216
 Number of molecular orbitals:                                              1216

 Number of orbital functions:                                               4983
 Number of independent orbital functions:                                   4983

 Extrapolation method: initial_guess


 SCF WAVEFUNCTION OPTIMIZATION

  ----------------------------------- OT ---------------------------------------
  Minimizer      : DIIS                : direct inversion
                                         in the iterative subspace
                                         using   7 DIIS vectors
                                         safer DIIS on
  Preconditioner : FULL_SINGLE_INVERSE : inversion of 
                                         H + eS - 2*(Sc)(c^T*H*c+const)(Sc)^T
  Precond_solver : DEFAULT
  stepsize       :    0.08000000                  energy_gap     :    0.08000000
  eps_taylor     :   0.10000E-15                  max_taylor     :             4
  ----------------------------------- OT ---------------------------------------

  Step     Update method      Time    Convergence         Total energy    Change
  ------------------------------------------------------------------------------
     1 OT DIIS     0.80E-01   59.2     0.01635022     -6692.2722201400 -6.69E+03
     2 OT DIIS     0.80E-01   45.8     0.01536811     -6755.9807433125 -6.37E+01
     3 OT DIIS     0.80E-01   18.6     0.01460093     -6777.7662618473 -2.18E+01
     4 OT DIIS     0.80E-01   28.3     0.00748008     -6802.8261236072 -2.51E+01
     5 OT DIIS     0.80E-01   33.3     0.00531544     -6828.2421976867 -2.54E+01
     6 OT DIIS     0.80E-01   33.7     0.00379349     -6844.4897345041 -1.62E+01
     7 OT DIIS     0.80E-01   34.0     0.00292048     -6857.1538869655 -1.27E+01
     8 OT DIIS     0.80E-01   33.1     0.00236440     -6865.1835733943 -8.03E+00
     9 OT DIIS     0.80E-01   32.0     0.00181693     -6871.7978752974 -6.61E+00
    10 OT DIIS     0.80E-01   31.8     0.00141711     -6876.2834489639 -4.49E+00
    11 OT DIIS     0.80E-01   27.7     0.00112051     -6879.2256174966 -2.94E+00
    12 OT DIIS     0.80E-01   28.9     0.00092807     -6880.9392358278 -1.71E+00
    13 OT DIIS     0.80E-01   30.4     0.00076262     -6882.2507679248 -1.31E+00
    14 OT DIIS     0.80E-01   31.1     0.00063113     -6883.2046588619 -9.54E-01
    15 OT DIIS     0.80E-01   18.2     0.00053695     -6883.8565691664 -6.52E-01
    16 OT DIIS     0.80E-01   16.7     0.00046037     -6884.3464004968 -4.90E-01
    17 OT DIIS     0.80E-01   21.2     0.00039129     -6884.7508472508 -4.04E-01
    18 OT DIIS     0.80E-01   21.0     0.00033880     -6885.0302120434 -2.79E-01
    19 OT DIIS     0.80E-01   18.9     0.00028849     -6885.2867272262 -2.57E-01
    20 OT DIIS     0.80E-01   23.1     0.00024996     -6885.4752547066 -1.89E-01
    21 OT DIIS     0.80E-01   20.0     0.00022275     -6885.6046021255 -1.29E-01
    22 OT DIIS     0.80E-01   17.4     0.00019576     -6885.7274049374 -1.23E-01
    23 OT DIIS     0.80E-01   21.5     0.00017360     -6885.8173005026 -8.99E-02
    24 OT DIIS     0.80E-01   21.1     0.00015657     -6885.8952610882 -7.80E-02
    25 OT DIIS     0.80E-01   19.0     0.00014266     -6885.9533473005 -5.81E-02
    26 OT DIIS     0.80E-01   23.3     0.00012943     -6886.0071633245 -5.38E-02
    27 OT DIIS     0.80E-01   16.9     0.00011876     -6886.0528225417 -4.57E-02
    28 OT DIIS     0.80E-01   21.1     0.00010795     -6886.0968609318 -4.40E-02
    29 OT DIIS     0.80E-01   21.0     0.00010048     -6886.1288263923 -3.20E-02
    30 OT DIIS     0.80E-01   19.0     0.00009395     -6886.1541203800 -2.53E-02
    31 OT DIIS     0.80E-01   23.3     0.00008573     -6886.1895511008 -3.54E-02
    32 OT DIIS     0.80E-01   16.9     0.00008106     -6886.2092087901 -1.97E-02
    33 OT DIIS     0.80E-01   21.2     0.00007655     -6886.2283512811 -1.91E-02
    34 OT DIIS     0.80E-01   21.3     0.00007089     -6886.2526962339 -2.43E-02
    35 OT DIIS     0.80E-01   18.9     0.00006703     -6886.2700401480 -1.73E-02
    36 OT DIIS     0.80E-01   22.2     0.00006386     -6886.2846060918 -1.46E-02
    37 OT DIIS     0.80E-01   19.4     0.00006054     -6886.2974140022 -1.28E-02
    38 OT DIIS     0.80E-01   18.0     0.00005708     -6886.3142884092 -1.69E-02
    39 OT DIIS     0.80E-01   21.5     0.00005327     -6886.3295470820 -1.53E-02
    40 OT DIIS     0.80E-01   20.7     0.00005082     -6886.3390831081 -9.54E-03
    41 OT DIIS     0.80E-01   19.0     0.00004777     -6886.3513522000 -1.23E-02
    42 OT DIIS     0.80E-01   23.2     0.00004516     -6886.3624425874 -1.11E-02
    43 OT DIIS     0.80E-01   17.0     0.00004358     -6886.3687309922 -6.29E-03
    44 OT DIIS     0.80E-01   21.1     0.00004105     -6886.3773239777 -8.59E-03
    45 OT DIIS     0.80E-01   21.2     0.00003880     -6886.3868186755 -9.49E-03
    46 OT DIIS     0.80E-01   18.6     0.00003726     -6886.3937481724 -6.93E-03
    47 OT DIIS     0.80E-01   22.3     0.00003594     -6886.3984260734 -4.68E-03
    48 OT DIIS     0.80E-01   17.8     0.00003365     -6886.4071939439 -8.77E-03
    49 OT DIIS     0.80E-01   20.1     0.00003197     -6886.4139174751 -6.72E-03
    50 OT DIIS     0.80E-01   21.1     0.00003091     -6886.4186838901 -4.77E-03
    51 OT DIIS     0.80E-01   19.0     0.00002936     -6886.4239150399 -5.23E-03
    52 OT DIIS     0.80E-01   21.8     0.00002835     -6886.4277713317 -3.86E-03
    53 OT DIIS     0.80E-01   18.3     0.00002725     -6886.4321777941 -4.41E-03
    54 OT DIIS     0.80E-01   18.8     0.00002643     -6886.4359388827 -3.76E-03
    55 OT DIIS     0.80E-01   21.2     0.00002565     -6886.4393578429 -3.42E-03
    56 OT DIIS     0.80E-01   19.9     0.00002484     -6886.4432138561 -3.86E-03
    57 OT DIIS     0.80E-01   21.0     0.00002426     -6886.4468180516 -3.60E-03
    58 OT DIIS     0.80E-01   20.6     0.00002370     -6886.4486194163 -1.80E-03
    59 OT DIIS     0.80E-01   17.3     0.00002292     -6886.4533769692 -4.76E-03
    60 OT DIIS     0.80E-01   21.6     0.00002202     -6886.4578385546 -4.46E-03
    61 OT DIIS     0.80E-01   21.1     0.00002149     -6886.4602292892 -2.39E-03
    62 OT DIIS     0.80E-01   18.8     0.00002094     -6886.4629748684 -2.75E-03
    63 OT DIIS     0.80E-01   22.6     0.00002051     -6886.4654170874 -2.44E-03
    64 OT DIIS     0.80E-01   17.8     0.00002018     -6886.4674452290 -2.03E-03
    65 OT DIIS     0.80E-01   19.7     0.00001979     -6886.4696615620 -2.22E-03
    66 OT DIIS     0.80E-01   21.1     0.00001941     -6886.4712353745 -1.57E-03
    67 OT DIIS     0.80E-01   19.2     0.00001903     -6886.4737745055 -2.54E-03
    68 OT DIIS     0.80E-01   21.5     0.00001872     -6886.4755116944 -1.74E-03
    69 OT DIIS     0.80E-01   20.3     0.00001833     -6886.4777444888 -2.23E-03
    70 OT DIIS     0.80E-01   17.3     0.00001793     -6886.4803664164 -2.62E-03
    71 OT DIIS     0.80E-01   21.5     0.00001762     -6886.4823077372 -1.94E-03
    72 OT DIIS     0.80E-01   21.1     0.00001738     -6886.4837813777 -1.47E-03
    73 OT DIIS     0.80E-01   18.7     0.00001710     -6886.4850964461 -1.32E-03
    74 OT DIIS     0.80E-01   23.4     0.00001627     -6886.4882262466 -3.13E-03
    75 OT DIIS     0.80E-01   16.9     0.00001586     -6886.4902472000 -2.02E-03
    76 OT DIIS     0.80E-01   21.2     0.00001571     -6886.4909678258 -7.21E-04
    77 OT DIIS     0.80E-01   20.3     0.00001547     -6886.4918628635 -8.95E-04
    78 OT DIIS     0.80E-01   18.9     0.00001527     -6886.4930492768 -1.19E-03
    79 OT DIIS     0.80E-01   23.3     0.00001513     -6886.4950318014 -1.98E-03
    80 OT DIIS     0.80E-01   17.0     0.00001478     -6886.4957511986 -7.19E-04
    81 OT DIIS     0.80E-01   20.2     0.00001442     -6886.4983256137 -2.57E-03
    82 OT DIIS     0.80E-01   21.2     0.00001371     -6886.5012155079 -2.89E-03
    83 OT DIIS     0.80E-01   19.0     0.00001350     -6886.5024087507 -1.19E-03
    84 OT DIIS     0.80E-01   21.8     0.00001324     -6886.5037394856 -1.33E-03
    85 OT DIIS     0.80E-01   19.8     0.00001287     -6886.5061306175 -2.39E-03
    86 OT DIIS     0.80E-01   17.7     0.00001265     -6886.5072159405 -1.09E-03
    87 OT DIIS     0.80E-01   21.3     0.00001227     -6886.5094460512 -2.23E-03
    88 OT DIIS     0.80E-01   20.8     0.00001180     -6886.5111565672 -1.71E-03
    89 OT DIIS     0.80E-01   19.4     0.00001145     -6886.5127584884 -1.60E-03
    90 OT DIIS     0.80E-01   22.2     0.00001124     -6886.5137609553 -1.00E-03
    91 OT DIIS     0.80E-01   16.8     0.00001091     -6886.5152625612 -1.50E-03
    92 OT DIIS     0.80E-01   21.4     0.00001103     -6886.5179842601 -2.72E-03
    93 OT SD       0.80E-01   21.1     0.00001163     -6886.5180037536 -1.95E-05
    94 OT DIIS     0.80E-01   19.0     0.00001089     -6886.5180666791 -6.29E-05
    95 OT DIIS     0.80E-01   22.8     0.00001006     -6886.5186415362 -5.75E-04
    96 OT DIIS     0.80E-01   17.9     0.00000997     -6886.5199929187 -1.35E-03
    97 OT DIIS     0.80E-01   19.5     0.00001004     -6886.5205730426 -5.80E-04
    98 OT DIIS     0.80E-01   21.4     0.00000922     -6886.5218927917 -1.32E-03
    99 OT DIIS     0.80E-01   19.9     0.00000898     -6886.5226822726 -7.89E-04
   100 OT DIIS     0.80E-01   20.8     0.00000862     -6886.5242011028 -1.52E-03

  Leaving inner SCF loop after reaching   100 steps.


  Electronic density on regular grids:      -2432.0000000183       -0.0000000183
  Core density on regular grids:             2431.9999999988       -0.0000000012
  Total charge density on r-space grids:       -0.0000000195
  Total charge density g-space grids:          -0.0000000195

  Overlap energy of the core charge distribution:               0.03711640696818
  Self energy of the core charge distribution:             -16017.19408509233290
  Core Hamiltonian energy:                                   4357.03865876745112
  Hartree energy:                                            6110.36751394781368
  Exchange-correlation energy:                              -1334.66389709913574
  Dispersion energy:                                           -2.10950803355088

  Total energy:                                             -6886.52420110278763

  outer SCF iter =    1 RMS gradient =   0.86E-05 energy =      -6886.5242011028

  ----------------------------------- OT ---------------------------------------
  Minimizer      : DIIS                : direct inversion
                                         in the iterative subspace
                                         using   7 DIIS vectors
                                         safer DIIS on
  Preconditioner : FULL_SINGLE_INVERSE : inversion of 
                                         H + eS - 2*(Sc)(c^T*H*c+const)(Sc)^T
  Precond_solver : DEFAULT
  stepsize       :    0.08000000                  energy_gap     :    0.08000000
  eps_taylor     :   0.10000E-15                  max_taylor     :             4
  ----------------------------------- OT ---------------------------------------

  Step     Update method      Time    Convergence         Total energy    Change
  ------------------------------------------------------------------------------
     1 OT DIIS     0.80E-01   51.6     0.00010912     -6886.5245718155 -3.71E-04
     2 OT DIIS     0.80E-01   22.2     0.00012535     -6886.5278646577 -3.29E-03
     3 OT DIIS     0.80E-01   16.5     0.00014554     -6886.5286856706 -8.21E-04
     4 OT DIIS     0.80E-01   20.9     0.00010709     -6886.5300827677 -1.40E-03
     5 OT DIIS     0.80E-01   20.0     0.00007871     -6886.5316070417 -1.52E-03
     6 OT DIIS     0.80E-01   20.2     0.00007348     -6886.5324333549 -8.26E-04
     7 OT DIIS     0.80E-01   18.9     0.00005821     -6886.5337510404 -1.32E-03
     8 OT DIIS     0.80E-01   19.0     0.00005760     -6886.5347323360 -9.81E-04
     9 OT DIIS     0.80E-01   20.5     0.00004727     -6886.5357908889 -1.06E-03
    10 OT DIIS     0.80E-01   18.5     0.00005036     -6886.5367850059 -9.94E-04
    11 OT DIIS     0.80E-01   22.0     0.00004611     -6886.5378470925 -1.06E-03
    12 OT DIIS     0.80E-01   16.9     0.00004642     -6886.5387947351 -9.48E-04
    13 OT DIIS     0.80E-01   21.5     0.00004635     -6886.5395638206 -7.69E-04
    14 OT DIIS     0.80E-01   21.0     0.00004757     -6886.5404518593 -8.88E-04
    15 OT DIIS     0.80E-01   18.9     0.00004366     -6886.5409618818 -5.10E-04
    16 OT DIIS     0.80E-01   22.8     0.00004381     -6886.5416116207 -6.50E-04
    17 OT DIIS     0.80E-01   17.3     0.00004202     -6886.5418512787 -2.40E-04
    18 OT DIIS     0.80E-01   20.3     0.00004101     -6886.5425331120 -6.82E-04
    19 OT DIIS     0.80E-01   21.2     0.00004086     -6886.5425784737 -4.54E-05
    20 OT DIIS     0.80E-01   18.9     0.00003917     -6886.5427302724 -1.52E-04
    21 OT DIIS     0.80E-01   21.2     0.00003666     -6886.5429744264 -2.44E-04
    22 OT DIIS     0.80E-01   20.5     0.00003475     -6886.5430551799 -8.08E-05
    23 OT DIIS     0.80E-01   17.4     0.00003070     -6886.5431523243 -9.71E-05
    24 OT DIIS     0.80E-01   21.4     0.00002797     -6886.5432645039 -1.12E-04
    25 OT DIIS     0.80E-01   21.0     0.00002600     -6886.5433546627 -9.02E-05
    26 OT DIIS     0.80E-01   18.8     0.00002519     -6886.5435410506 -1.86E-04
    27 OT DIIS     0.80E-01   20.9     0.00002669     -6886.5436312477 -9.02E-05
    28 OT DIIS     0.80E-01   15.3     0.00002645     -6886.5437572384 -1.26E-04
    29 OT DIIS     0.80E-01   22.1     0.00002729     -6886.5439556811 -1.98E-04
    30 OT DIIS     0.80E-01   20.7     0.00002885     -6886.5440618965 -1.06E-04
    31 OT DIIS     0.80E-01   17.5     0.00002839     -6886.5441666092 -1.05E-04
    32 OT DIIS     0.80E-01   21.0     0.00002717     -6886.5442449116 -7.83E-05
    33 OT DIIS     0.80E-01   21.9     0.00002546     -6886.5443283931 -8.35E-05
    34 OT DIIS     0.80E-01   19.7     0.00002335     -6886.5444328975 -1.05E-04
    35 OT DIIS     0.80E-01   21.2     0.00002323     -6886.5444891984 -5.63E-05
    36 OT DIIS     0.80E-01   22.1     0.00002171     -6886.5445420670 -5.29E-05
    37 OT DIIS     0.80E-01   17.5     0.00002120     -6886.5446558332 -1.14E-04
    38 OT DIIS     0.80E-01   21.0     0.00002168     -6886.5447378688 -8.20E-05
    39 OT DIIS     0.80E-01   22.1     0.00002231     -6886.5448300616 -9.22E-05
    40 OT DIIS     0.80E-01   20.1     0.00002252     -6886.5449178582 -8.78E-05
    41 OT DIIS     0.80E-01   19.7     0.00002295     -6886.5450359065 -1.18E-04
    42 OT DIIS     0.80E-01   22.5     0.00002240     -6886.5451139522 -7.80E-05
    43 OT DIIS     0.80E-01   16.9     0.00002344     -6886.5451998219 -8.59E-05
    44 OT DIIS     0.80E-01   21.3     0.00002217     -6886.5452180034 -1.82E-05
    45 OT DIIS     0.80E-01   20.9     0.00002082     -6886.5452980350 -8.00E-05
    46 OT DIIS     0.80E-01   18.9     0.00001994     -6886.5453496306 -5.16E-05
    47 OT DIIS     0.80E-01   23.1     0.00001927     -6886.5454035182 -5.39E-05
    48 OT DIIS     0.80E-01   17.4     0.00001856     -6886.5454533064 -4.98E-05
    49 OT DIIS     0.80E-01   20.3     0.00001851     -6886.5455382826 -8.50E-05
    50 OT DIIS     0.80E-01   21.2     0.00001848     -6886.5455940080 -5.57E-05
    51 OT DIIS     0.80E-01   18.5     0.00001974     -6886.5456980794 -1.04E-04
    52 OT DIIS     0.80E-01   22.6     0.00002027     -6886.5457395719 -4.15E-05
    53 OT DIIS     0.80E-01   18.3     0.00002028     -6886.5458129988 -7.34E-05
    54 OT DIIS     0.80E-01   19.6     0.00002008     -6886.5458707106 -5.77E-05
    55 OT DIIS     0.80E-01   21.2     0.00001968     -6886.5459130557 -4.23E-05
    56 OT DIIS     0.80E-01   19.6     0.00001841     -6886.5459380645 -2.50E-05
    57 OT DIIS     0.80E-01   21.3     0.00001744     -6886.5460041893 -6.61E-05
    58 OT DIIS     0.80E-01   20.6     0.00001648     -6886.5460246513 -2.05E-05
    59 OT DIIS     0.80E-01   17.3     0.00001648     -6886.5460979206 -7.33E-05
    60 OT DIIS     0.80E-01   21.6     0.00001672     -6886.5461356739 -3.78E-05
    61 OT DIIS     0.80E-01   21.0     0.00001692     -6886.5461920881 -5.64E-05
    62 OT DIIS     0.80E-01   18.8     0.00001734     -6886.5462572392 -6.52E-05
    63 OT DIIS     0.80E-01   22.5     0.00001807     -6886.5463129146 -5.57E-05
    64 OT DIIS     0.80E-01   17.4     0.00001803     -6886.5463474096 -3.45E-05
    65 OT DIIS     0.80E-01   20.4     0.00001764     -6886.5464166236 -6.92E-05
    66 OT DIIS     0.80E-01   21.3     0.00001668     -6886.5464114746  5.15E-06
    67 OT DIIS     0.80E-01   18.9     0.00001613     -6886.5464754242 -6.39E-05
    68 OT DIIS     0.80E-01   22.2     0.00001568     -6886.5465005816 -2.52E-05
    69 OT DIIS     0.80E-01   18.7     0.00001510     -6886.5465314312 -3.08E-05
    70 OT DIIS     0.80E-01   18.9     0.00001478     -6886.5465762426 -4.48E-05
    71 OT DIIS     0.80E-01   21.4     0.00001502     -6886.5466208826 -4.46E-05
    72 OT DIIS     0.80E-01   19.9     0.00001530     -6886.5466595414 -3.87E-05
    73 OT DIIS     0.80E-01   21.2     0.00001558     -6886.5467266102 -6.71E-05
    74 OT DIIS     0.80E-01   21.1     0.00001580     -6886.5467350441 -8.43E-06
    75 OT DIIS     0.80E-01   17.3     0.00001581     -6886.5468007163 -6.57E-05
    76 OT DIIS     0.80E-01   21.5     0.00001591     -6886.5468318400 -3.11E-05
    77 OT DIIS     0.80E-01   21.1     0.00001538     -6886.5468445035 -1.27E-05
    78 OT DIIS     0.80E-01   19.2     0.00001442     -6886.5468767025 -3.22E-05
    79 OT DIIS     0.80E-01   23.2     0.00001394     -6886.5469076722 -3.10E-05
    80 OT DIIS     0.80E-01   16.8     0.00001357     -6886.5469335353 -2.59E-05
    81 OT DIIS     0.80E-01   21.1     0.00001340     -6886.5469798704 -4.63E-05
    82 OT DIIS     0.80E-01   21.3     0.00001357     -6886.5469946295 -1.48E-05
    83 OT DIIS     0.80E-01   18.7     0.00001365     -6886.5470484408 -5.38E-05
    84 OT DIIS     0.80E-01   22.1     0.00001436     -6886.5470939643 -4.55E-05
    85 OT DIIS     0.80E-01   18.2     0.00001480     -6886.5471118136 -1.78E-05
    86 OT DIIS     0.80E-01   19.7     0.00001441     -6886.5471433787 -3.16E-05
    87 OT DIIS     0.80E-01   21.2     0.00001418     -6886.5471706885 -2.73E-05
    88 OT DIIS     0.80E-01   19.3     0.00001361     -6886.5471901535 -1.95E-05
    89 OT DIIS     0.80E-01   21.4     0.00001293     -6886.5472244717 -3.43E-05
    90 OT DIIS     0.80E-01   19.8     0.00001255     -6886.5472309277 -6.46E-06
    91 OT DIIS     0.80E-01   17.7     0.00001208     -6886.5472649497 -3.40E-05
    92 OT DIIS     0.80E-01   21.2     0.00001227     -6886.5473024018 -3.75E-05
    93 OT DIIS     0.80E-01   20.4     0.00001270     -6886.5473232508 -2.08E-05
    94 OT DIIS     0.80E-01   20.5     0.00001278     -6886.5473552077 -3.20E-05
    95 OT DIIS     0.80E-01   22.1     0.00001314     -6886.5473879305 -3.27E-05
    96 OT DIIS     0.80E-01   16.8     0.00001325     -6886.5474155185 -2.76E-05
    97 OT DIIS     0.80E-01   21.4     0.00001299     -6886.5474450142 -2.95E-05
    98 OT DIIS     0.80E-01   21.1     0.00001277     -6886.5474498595 -4.85E-06
    99 OT DIIS     0.80E-01   18.8     0.00001195     -6886.5474704901 -2.06E-05
   100 OT DIIS     0.80E-01   23.0     0.00001161     -6886.5475019114 -3.14E-05

  Leaving inner SCF loop after reaching   100 steps.


  Electronic density on regular grids:      -2432.0000000185       -0.0000000185
  Core density on regular grids:             2431.9999999988       -0.0000000012
  Total charge density on r-space grids:       -0.0000000197
  Total charge density g-space grids:          -0.0000000197

  Overlap energy of the core charge distribution:               0.03711640696818
  Self energy of the core charge distribution:             -16017.19408509233290
  Core Hamiltonian energy:                                   4356.98497907966521
  Hartree energy:                                            6110.37828549825645
  Exchange-correlation energy:                              -1334.64428977035732
  Dispersion energy:                                           -2.10950803355088

  Total energy:                                             -6886.54750191135190

  outer SCF iter =    2 RMS gradient =   0.12E-04 energy =      -6886.5475019114

  ----------------------------------- OT ---------------------------------------
  Minimizer      : DIIS                : direct inversion
                                         in the iterative subspace
                                         using   7 DIIS vectors
                                         safer DIIS on
  Preconditioner : FULL_SINGLE_INVERSE : inversion of 
                                         H + eS - 2*(Sc)(c^T*H*c+const)(Sc)^T
  Precond_solver : DEFAULT
  stepsize       :    0.08000000                  energy_gap     :    0.08000000
  eps_taylor     :   0.10000E-15                  max_taylor     :             4
  ----------------------------------- OT ---------------------------------------

  Step     Update method      Time    Convergence         Total energy    Change
  ------------------------------------------------------------------------------
     1 OT DIIS     0.80E-01   45.9     0.00001162     -6886.5475154069 -1.35E-05
     2 OT DIIS     0.80E-01   21.4     0.00003511     -6886.5475281746 -1.28E-05
     3 OT DIIS     0.80E-01   16.8     0.00001045     -6886.5475731284 -4.50E-05
     4 OT DIIS     0.80E-01   20.5     0.00001021     -6886.5475892597 -1.61E-05
     5 OT DIIS     0.80E-01   18.3     0.00001743     -6886.5478803817 -2.91E-04
     6 OT DIIS     0.80E-01   22.0     0.00003156     -6886.5486755645 -7.95E-04
     7 OT SD       0.80E-01   16.5     0.00002918     -6886.5486844960 -8.93E-06
     8 OT DIIS     0.80E-01   20.6     0.00008100     -6886.5484046670  2.80E-04
     9 OT DIIS     0.80E-01   20.7     0.00001531     -6886.5484667592 -6.21E-05
    10 OT DIIS     0.80E-01   19.5     0.00001335     -6886.5486870802 -2.20E-04
    11 OT SD       0.80E-01   20.4     0.00001438     -6886.5487996255 -1.13E-04
    12 OT DIIS     0.80E-01   17.6     0.00007849     -6886.5486112761  1.88E-04
    13 OT DIIS     0.80E-01   20.8     0.00000885     -6886.5487984725 -1.87E-04
    14 OT SD       0.80E-01   18.3     0.00000611     -6886.5488383405 -3.99E-05
    15 OT DIIS     0.80E-01   22.0     0.00001862     -6886.5488392134 -8.73E-07
    16 OT SD       0.80E-01   16.4     0.00000682     -6886.5488925926 -5.34E-05
    17 OT DIIS     0.80E-01   20.7     0.00002481     -6886.5488820252  1.06E-05
    18 OT DIIS     0.80E-01   20.6     0.00000647     -6886.5489488939 -6.69E-05
    19 OT DIIS     0.80E-01   20.0     0.00000662     -6886.5489873790 -3.85E-05
    20 OT DIIS     0.80E-01   20.2     0.00000509     -6886.5490550107 -6.76E-05
    21 OT DIIS     0.80E-01   16.8     0.00000574     -6886.5490762189 -2.12E-05
    22 OT DIIS     0.80E-01   20.9     0.00000557     -6886.5491035511 -2.73E-05
    23 OT SD       0.80E-01   19.4     0.00000536     -6886.5491155253 -1.20E-05
    24 OT DIIS     0.80E-01   21.5     0.00002183     -6886.5491062668  9.26E-06
    25 OT DIIS     0.80E-01   19.5     0.00000508     -6886.5491558470 -4.96E-05
    26 OT SD       0.80E-01   18.5     0.00000516     -6886.5492185349 -6.27E-05
    27 OT SD       0.80E-01   21.4     0.00001520     -6886.5492160490  2.49E-06
    28 OT DIIS     0.80E-01   20.1     0.00008411     -6886.5489839909  2.32E-04
    29 OT DIIS     0.80E-01   20.9     0.00000360     -6886.5492261947 -2.42E-04
    30 OT SD       0.80E-01   21.2     0.00000380     -6886.5492531543 -2.70E-05
    31 OT DIIS     0.80E-01   17.1     0.00000971     -6886.5492549077 -1.75E-06
    32 OT DIIS     0.80E-01   21.4     0.00000347     -6886.5492729532 -1.80E-05
    33 OT SD       0.80E-01   21.3     0.00000362     -6886.5493006935 -2.77E-05
    34 OT DIIS     0.80E-01   19.2     0.00001040     -6886.5493013447 -6.51E-07
    35 OT DIIS     0.80E-01   23.1     0.00000340     -6886.5493240178 -2.27E-05
    36 OT DIIS     0.80E-01   17.2     0.00000317     -6886.5493457383 -2.17E-05
    37 OT DIIS     0.80E-01   20.9     0.00000355     -6886.5493471455 -1.41E-06
    38 OT DIIS     0.80E-01   21.3     0.00000384     -6886.5493622751 -1.51E-05
    39 OT SD       0.80E-01   18.6     0.00000368     -6886.5493863345 -2.41E-05
    40 OT DIIS     0.80E-01   22.2     0.00001542     -6886.5493815044  4.83E-06
    41 OT DIIS     0.80E-01   19.7     0.00000293     -6886.5494098341 -2.83E-05
    42 OT DIIS     0.80E-01   17.8     0.00000332     -6886.5494128111 -2.98E-06
    43 OT SD       0.80E-01   21.5     0.00000306     -6886.5494196629 -6.85E-06
    44 OT DIIS     0.80E-01   20.6     0.00001110     -6886.5494183022  1.36E-06
    45 OT DIIS     0.80E-01   20.1     0.00000281     -6886.5494359702 -1.77E-05
    46 OT SD       0.80E-01   22.5     0.00000246     -6886.5494477954 -1.18E-05
    47 OT DIIS     0.80E-01   16.8     0.00000520     -6886.5494495267 -1.73E-06
    48 OT DIIS     0.80E-01   21.2     0.00000236     -6886.5494562141 -6.69E-06
    49 OT DIIS     0.80E-01   21.1     0.00000250     -6886.5494615182 -5.30E-06
    50 OT DIIS     0.80E-01   18.9     0.00000232     -6886.5494663470 -4.83E-06
    51 OT DIIS     0.80E-01   21.3     0.00000234     -6886.5494718156 -5.47E-06
    52 OT DIIS     0.80E-01   17.4     0.00000224     -6886.5494860507 -1.42E-05
    53 OT DIIS     0.80E-01   18.5     0.00000231     -6886.5494914115 -5.36E-06
    54 OT DIIS     0.80E-01   22.1     0.00000230     -6886.5494966891 -5.28E-06
    55 OT DIIS     0.80E-01   19.5     0.00000217     -6886.5495048606 -8.17E-06
    56 OT DIIS     0.80E-01   17.8     0.00000215     -6886.5495129701 -8.11E-06
    57 OT DIIS     0.80E-01   21.5     0.00000227     -6886.5495180722 -5.10E-06
    58 OT DIIS     0.80E-01   21.1     0.00000223     -6886.5495247232 -6.65E-06
    59 OT SD       0.80E-01   18.7     0.00000215     -6886.5495335398 -8.82E-06
    60 OT DIIS     0.80E-01   23.4     0.00000468     -6886.5495348834 -1.34E-06
    61 OT DIIS     0.80E-01   16.9     0.00000207     -6886.5495399404 -5.06E-06
    62 OT DIIS     0.80E-01   21.0     0.00000209     -6886.5495481138 -8.17E-06
    63 OT SD       0.80E-01   21.3     0.00000220     -6886.5495543377 -6.22E-06
    64 OT DIIS     0.80E-01   18.8     0.00000574     -6886.5495551320 -7.94E-07
    65 OT DIIS     0.80E-01   22.6     0.00000208     -6886.5495727729 -1.76E-05
    66 OT SD       0.80E-01   18.0     0.00000202     -6886.5495809977 -8.22E-06
    67 OT DIIS     0.80E-01   19.7     0.00000390     -6886.5495823453 -1.35E-06
    68 OT DIIS     0.80E-01   21.2     0.00000195     -6886.5495834920 -1.15E-06
    69 OT DIIS     0.80E-01   19.2     0.00000198     -6886.5495925513 -9.06E-06
    70 OT DIIS     0.80E-01   21.7     0.00000208     -6886.5495963122 -3.76E-06
    71 OT DIIS     0.80E-01   20.2     0.00000203     -6886.5496010411 -4.73E-06
    72 OT DIIS     0.80E-01   17.4     0.00000201     -6886.5496155686 -1.45E-05
    73 OT SD       0.80E-01   21.6     0.00000209     -6886.5496268412 -1.13E-05
    74 OT DIIS     0.80E-01   21.2     0.00000611     -6886.5496271879 -3.47E-07
    75 OT DIIS     0.80E-01   18.8     0.00000202     -6886.5496369134 -9.73E-06
    76 OT SD       0.80E-01   22.6     0.00000200     -6886.5496481035 -1.12E-05
    77 OT DIIS     0.80E-01   16.8     0.00000553     -6886.5496486000 -4.97E-07
    78 OT DIIS     0.80E-01   21.3     0.00000208     -6886.5496588940 -1.03E-05
    79 OT DIIS     0.80E-01   21.1     0.00000202     -6886.5496655080 -6.61E-06
    80 OT DIIS     0.80E-01   18.8     0.00000185     -6886.5496678470 -2.34E-06
    81 OT DIIS     0.80E-01   22.7     0.00000184     -6886.5496690276 -1.18E-06
    82 OT DIIS     0.80E-01   17.6     0.00000192     -6886.5496926538 -2.36E-05
    83 OT SD       0.80E-01   20.4     0.00000205     -6886.5496948489 -2.20E-06
    84 OT DIIS     0.80E-01   21.2     0.00000667     -6886.5496946509  1.98E-07
    85 OT DIIS     0.80E-01   18.7     0.00000197     -6886.5496956022 -9.51E-07
    86 OT SD       0.80E-01   22.3     0.00000192     -6886.5497128093 -1.72E-05
    87 OT DIIS     0.80E-01   18.4     0.00000596     -6886.5497129177 -1.08E-07
    88 OT DIIS     0.80E-01   19.0     0.00000187     -6886.5497168819 -3.96E-06
    89 OT DIIS     0.80E-01   21.1     0.00000171     -6886.5497279891 -1.11E-05
    90 OT SD       0.80E-01   19.2     0.00000186     -6886.5497371340 -9.14E-06
    91 OT DIIS     0.80E-01   21.7     0.00000525     -6886.5497374063 -2.72E-07
    92 OT DIIS     0.80E-01   19.3     0.00000182     -6886.5497486899 -1.13E-05
    93 OT SD       0.80E-01   18.0     0.00000182     -6886.5497513976 -2.71E-06
    94 OT DIIS     0.80E-01   21.2     0.00000573     -6886.5497514704 -7.28E-08
    95 OT DIIS     0.80E-01   20.2     0.00000171     -6886.5497637433 -1.23E-05
    96 OT DIIS     0.80E-01   20.8     0.00000181     -6886.5497770525 -1.33E-05
    97 OT SD       0.80E-01   21.9     0.00000213     -6886.5497909428 -1.39E-05
    98 OT SD       0.80E-01   16.7     0.00000445     -6886.5497912991 -3.56E-07
    99 OT DIIS     0.80E-01   21.3     0.00001913     -6886.5497786066  1.27E-05
   100 OT DIIS     0.80E-01   20.5     0.00000165     -6886.5497783723  2.34E-07

  Leaving inner SCF loop after reaching   100 steps.


  Electronic density on regular grids:      -2432.0000000185       -0.0000000185
  Core density on regular grids:             2431.9999999988       -0.0000000012
  Total charge density on r-space grids:       -0.0000000196
  Total charge density g-space grids:          -0.0000000196

  Overlap energy of the core charge distribution:               0.03711640696818
  Self energy of the core charge distribution:             -16017.19408509233290
  Core Hamiltonian energy:                                   4357.01613769824053
  Hartree energy:                                            6110.35982900630825
  Exchange-correlation energy:                              -1334.65926835795449
  Dispersion energy:                                           -2.10950803355088

  Total energy:                                             -6886.54977837232309

  outer SCF iter =    3 RMS gradient =   0.16E-05 energy =      -6886.5497783723

  ----------------------------------- OT ---------------------------------------
  Minimizer      : DIIS                : direct inversion
                                         in the iterative subspace
                                         using   7 DIIS vectors
                                         safer DIIS on
  Preconditioner : FULL_SINGLE_INVERSE : inversion of 
                                         H + eS - 2*(Sc)(c^T*H*c+const)(Sc)^T
  Precond_solver : DEFAULT
  stepsize       :    0.08000000                  energy_gap     :    0.08000000
  eps_taylor     :   0.10000E-15                  max_taylor     :             4
  ----------------------------------- OT ---------------------------------------

  Step     Update method      Time    Convergence         Total energy    Change
  ------------------------------------------------------------------------------
     1 OT DIIS     0.80E-01   42.6     0.00000151     -6886.5497794306 -1.06E-06
     2 OT DIIS     0.80E-01   20.5     0.00000246     -6886.5497803369 -9.06E-07
     3 OT DIIS     0.80E-01   20.0     0.00000147     -6886.5497806332 -2.96E-07
     4 OT DIIS     0.80E-01   19.7     0.00000150     -6886.5497811317 -4.99E-07
     5 OT DIIS     0.80E-01   18.3     0.00000157     -6886.5497845372 -3.41E-06
     6 OT DIIS     0.80E-01   20.6     0.00000156     -6886.5497916617 -7.12E-06
     7 OT DIIS     0.80E-01   18.2     0.00000142     -6886.5497964220 -4.76E-06
     8 OT DIIS     0.80E-01   22.3     0.00000138     -6886.5498017147 -5.29E-06
     9 OT DIIS     0.80E-01   16.4     0.00000136     -6886.5498048559 -3.14E-06
    10 OT DIIS     0.80E-01   21.0     0.00000131     -6886.5498075335 -2.68E-06
    11 OT DIIS     0.80E-01   20.1     0.00000134     -6886.5498115366 -4.00E-06
    12 OT DIIS     0.80E-01   20.2     0.00000130     -6886.5498164221 -4.89E-06
    13 OT DIIS     0.80E-01   19.4     0.00000127     -6886.5498221530 -5.73E-06
    14 OT DIIS     0.80E-01   18.4     0.00000122     -6886.5498261351 -3.98E-06
    15 OT DIIS     0.80E-01   20.5     0.00000120     -6886.5498281933 -2.06E-06
    16 OT DIIS     0.80E-01   18.3     0.00000129     -6886.5498290798 -8.87E-07
    17 OT DIIS     0.80E-01   22.4     0.00000121     -6886.5498313088 -2.23E-06
    18 OT DIIS     0.80E-01   16.4     0.00000118     -6886.5498336884 -2.38E-06
    19 OT DIIS     0.80E-01   21.0     0.00000116     -6886.5498365001 -2.81E-06
    20 OT DIIS     0.80E-01   20.1     0.00000116     -6886.5498395791 -3.08E-06
    21 OT SD       0.80E-01   19.7     0.00000118     -6886.5498399991 -4.20E-07
    22 OT DIIS     0.80E-01   20.5     0.00000236     -6886.5498404337 -4.35E-07
    23 OT DIIS     0.80E-01   17.3     0.00000115     -6886.5498423454 -1.91E-06
    24 OT DIIS     0.80E-01   20.5     0.00000119     -6886.5498441784 -1.83E-06
    25 OT DIIS     0.80E-01   18.1     0.00000116     -6886.5498460541 -1.88E-06
    26 OT DIIS     0.80E-01   22.8     0.00000119     -6886.5498473593 -1.31E-06
    27 OT DIIS     0.80E-01   16.3     0.00000117     -6886.5498473510  8.31E-09
    28 OT SD       0.80E-01   21.0     0.00000123     -6886.5498526874 -5.34E-06
    29 OT DIIS     0.80E-01   20.2     0.00000321     -6886.5498528862 -1.99E-07
    30 OT SD       0.80E-01   20.4     0.00000117     -6886.5498589560 -6.07E-06
    31 OT DIIS     0.80E-01   19.2     0.00000293     -6886.5498592085 -2.53E-07
    32 OT SD       0.80E-01   18.9     0.00000115     -6886.5498640353 -4.83E-06
    33 OT DIIS     0.80E-01   20.6     0.00000301     -6886.5498642634 -2.28E-07
    34 OT DIIS     0.80E-01   18.3     0.00000114     -6886.5498705070 -6.24E-06
    35 OT SD       0.80E-01   21.9     0.00000117     -6886.5498792859 -8.78E-06
    36 OT SD       0.80E-01   16.4     0.00000297     -6886.5498794878 -2.02E-07
    37 OT DIIS     0.80E-01   21.0     0.00001602     -6886.5498711717  8.32E-06
    38 OT DIIS     0.80E-01   19.9     0.00000104     -6886.5498838614 -1.27E-05
    39 OT SD       0.80E-01   20.3     0.00000113     -6886.5498928877 -9.03E-06
    40 OT DIIS     0.80E-01   17.8     0.00000207     -6886.5498931996 -3.12E-07
    41 OT DIIS     0.80E-01   19.3     0.00000126     -6886.5499060160 -1.28E-05
    42 OT SD       0.80E-01   20.6     0.00000137     -6886.5499060133  2.73E-09
    43 OT DIIS     0.80E-01   19.0     0.00000471     -6886.5499056385  3.75E-07
    44 OT DIIS     0.80E-01   22.6     0.00000141     -6886.5499058194 -1.81E-07
    45 OT DIIS     0.80E-01   16.3     0.00000110     -6886.5499159378 -1.01E-05
    46 OT SD       0.80E-01   21.1     0.00000179     -6886.5499265517 -1.06E-05
    47 OT SD       0.80E-01   20.5     0.00000386     -6886.5499263559  1.96E-07
    48 OT DIIS     0.80E-01   20.0     0.00001490     -6886.5499178715  8.48E-06
    49 OT DIIS     0.80E-01   20.1     0.00000101     -6886.5499141396  3.73E-06
    50 OT DIIS     0.80E-01   18.0     0.00000090     -6886.5499173972 -3.26E-06

  *** SCF run converged in    50 steps ***


  Electronic density on regular grids:      -2432.0000000944       -0.0000000944
  Core density on regular grids:             2431.9999999988       -0.0000000012
  Total charge density on r-space grids:       -0.0000000955
  Total charge density g-space grids:          -0.0000000955

  Overlap energy of the core charge distribution:               0.03711640696818
  Self energy of the core charge distribution:             -16017.19408509233290
  Core Hamiltonian energy:                                   4357.01888558509927
  Hartree energy:                                            6110.35800511796060
  Exchange-correlation energy:                              -1334.66033138132912
  Dispersion energy:                                           -2.10950803355088

  Total energy:                                             -6886.54991739718571

  outer SCF iter =    4 RMS gradient =   0.90E-06 energy =      -6886.5499173972
  outer SCF loop converged in   4 iterations or  350 steps


 ENERGY| Total FORCE_EVAL ( QS ) energy [hartree]          -6886.549917685681066

 Number of electrons:                                                       2432
 Number of occupied orbitals:                                               1216
 Number of molecular orbitals:                                              1216

 Number of orbital functions:                                               4983
 Number of independent orbital functions:                                   4983

 Extrapolation method: ASPC


 SCF WAVEFUNCTION OPTIMIZATION

  ----------------------------------- OT ---------------------------------------
  Minimizer      : DIIS                : direct inversion
                                         in the iterative subspace
                                         using   7 DIIS vectors
                                         safer DIIS on
  Preconditioner : FULL_SINGLE_INVERSE : inversion of 
                                         H + eS - 2*(Sc)(c^T*H*c+const)(Sc)^T
  Precond_solver : DEFAULT
  stepsize       :    0.08000000                  energy_gap     :    0.08000000
  eps_taylor     :   0.10000E-15                  max_taylor     :             4
  ----------------------------------- OT ---------------------------------------

  Step     Update method      Time    Convergence         Total energy    Change
  ------------------------------------------------------------------------------
     1 OT DIIS     0.80E-01   19.1     0.00438296     -6895.4166406462 -6.90E+03
     2 OT DIIS     0.80E-01   16.7     0.00277045     -6902.7646544860 -7.35E+00
     3 OT DIIS     0.80E-01   21.1     0.00206732     -6906.9950582769 -4.23E+00
     4 OT DIIS     0.80E-01   21.2     0.00186062     -6908.1021720846 -1.11E+00
     5 OT DIIS     0.80E-01   18.7     0.00221659     -6908.6385587357 -5.36E-01
     6 OT DIIS     0.80E-01   22.7     0.00097891     -6909.1957539207 -5.57E-01
     7 OT DIIS     0.80E-01   17.7     0.00087924     -6909.5394789972 -3.44E-01
     8 OT DIIS     0.80E-01   19.7     0.00081446     -6909.8064410519 -2.67E-01
     9 OT DIIS     0.80E-01   21.3     0.00081343     -6909.9923861816 -1.86E-01
    10 OT DIIS     0.80E-01   19.7     0.00070755     -6910.1735568592 -1.81E-01
    11 OT SD       0.80E-01   21.2     0.00073270     -6910.2160383575 -4.25E-02
    12 OT SD       0.80E-01   20.0     0.00079255     -6910.4796212931 -2.64E-01
    13 OT SD       0.80E-01   17.6     0.00088355     -6910.7665144155 -2.87E-01
    14 OT SD       0.80E-01   21.7     0.00158559     -6910.9634634819 -1.97E-01
    15 OT DIIS     0.80E-01   21.1     0.00443234     -6910.1052677883  8.58E-01
    16 OT DIIS     0.80E-01   18.8     0.00139052     -6910.6959905306 -5.91E-01
    17 OT DIIS     0.80E-01   23.4     0.00139328     -6910.7180440150 -2.21E-02
    18 OT DIIS     0.80E-01   16.8     0.00136795     -6910.7929528126 -7.49E-02
    19 OT DIIS     0.80E-01   21.2     0.00087048     -6910.9786968681 -1.86E-01
    20 OT DIIS     0.80E-01   21.1     0.00074021     -6911.2377602638 -2.59E-01
    21 OT DIIS     0.80E-01   19.0     0.00067490     -6911.3684277839 -1.31E-01
    22 OT DIIS     0.80E-01   21.8     0.00070707     -6911.4966312744 -1.28E-01
    23 OT DIIS     0.80E-01   17.4     0.00069290     -6911.6131924477 -1.17E-01
    24 OT DIIS     0.80E-01   16.4     0.00073035     -6911.7311316985 -1.18E-01
    25 OT DIIS     0.80E-01   21.8     0.00056667     -6911.8924719179 -1.61E-01
    26 OT DIIS     0.80E-01   21.3     0.00058976     -6911.9937907444 -1.01E-01
    27 OT DIIS     0.80E-01   17.6     0.00057737     -6912.0759254595 -8.21E-02
    28 OT DIIS     0.80E-01   20.7     0.00045232     -6912.1716281210 -9.57E-02
    29 OT DIIS     0.80E-01   22.3     0.00051395     -6912.2194831076 -4.79E-02
    30 OT DIIS     0.80E-01   20.9     0.00044005     -6912.2836427100 -6.42E-02
    31 OT DIIS     0.80E-01   19.1     0.00039119     -6912.3431862850 -5.95E-02
    32 OT DIIS     0.80E-01   23.5     0.00036463     -6912.4203106606 -7.71E-02
    33 OT DIIS     0.80E-01   18.1     0.00033928     -6912.4777286191 -5.74E-02
    34 OT DIIS     0.80E-01   18.5     0.00034187     -6912.5180675170 -4.03E-02
    35 OT DIIS     0.80E-01   21.6     0.00033159     -6912.5652944766 -4.72E-02
    36 OT DIIS     0.80E-01   21.9     0.00032312     -6912.5841510941 -1.89E-02
    37 OT DIIS     0.80E-01   19.0     0.00032648     -6912.6108216375 -2.67E-02
    38 OT SD       0.80E-01   21.9     0.00032361     -6912.6150186749 -4.20E-03
    39 OT SD       0.80E-01   21.0     0.00032506     -6912.6655697022 -5.06E-02
    40 OT SD       0.80E-01   17.5     0.00034034     -6912.7152997893 -4.97E-02
    41 OT DIIS     0.80E-01   20.9     0.00046272     -6912.7589104086 -4.36E-02
    42 OT DIIS     0.80E-01   22.0     0.00043961     -6912.7447341846  1.42E-02
    43 OT SD       0.80E-01   20.7     0.00042899     -6912.7614038397 -1.67E-02
    44 OT SD       0.80E-01   19.2     0.00071586     -6912.7978951791 -3.65E-02
    45 OT DIIS     0.80E-01   23.3     0.00169319     -6912.6879268588  1.10E-01
    46 OT SD       0.80E-01   18.2     0.00030282     -6912.7133522945 -2.54E-02
    47 OT SD       0.80E-01   18.9     0.00030456     -6912.7561215773 -4.28E-02
    48 OT SD       0.80E-01   21.9     0.00034419     -6912.7961564644 -4.00E-02
    49 OT DIIS     0.80E-01   21.5     0.00057512     -6912.8229207477 -2.68E-02
    50 OT DIIS     0.80E-01   19.0     0.00027302     -6912.8768007872 -5.39E-02
    51 OT DIIS     0.80E-01   22.7     0.00025481     -6912.9119764568 -3.52E-02
    52 OT DIIS     0.80E-01   19.4     0.00023931     -6912.9396799769 -2.77E-02
    53 OT DIIS     0.80E-01   17.8     0.00024236     -6912.9505827318 -1.09E-02
    54 OT DIIS     0.80E-01   21.3     0.00022277     -6912.9929747221 -4.24E-02
    55 OT DIIS     0.80E-01   22.0     0.00021661     -6913.0356000788 -4.26E-02
    56 OT DIIS     0.80E-01   19.6     0.00020899     -6913.0661829397 -3.06E-02
    57 OT DIIS     0.80E-01   21.4     0.00020995     -6913.0986685622 -3.25E-02
    58 OT DIIS     0.80E-01   22.4     0.00019993     -6913.1157558140 -1.71E-02
    59 OT DIIS     0.80E-01   17.5     0.00018399     -6913.1602961820 -4.45E-02
    60 OT DIIS     0.80E-01   21.0     0.00017452     -6913.1844939352 -2.42E-02
    61 OT DIIS     0.80E-01   21.9     0.00016035     -6913.2103204475 -2.58E-02
    62 OT DIIS     0.80E-01   21.6     0.00014701     -6913.2450305228 -3.47E-02
    63 OT DIIS     0.80E-01   18.6     0.00014885     -6913.2492005104 -4.17E-03
    64 OT DIIS     0.80E-01   22.6     0.00012419     -6913.2803005499 -3.11E-02
    65 OT DIIS     0.80E-01   19.4     0.00011477     -6913.2927523713 -1.25E-02
    66 OT DIIS     0.80E-01   18.5     0.00010295     -6913.3032036795 -1.05E-02
    67 OT DIIS     0.80E-01   21.4     0.00009156     -6913.3155625708 -1.24E-02
    68 OT DIIS     0.80E-01   20.3     0.00007972     -6913.3227583367 -7.20E-03
    69 OT DIIS     0.80E-01   20.9     0.00006822     -6913.3299029439 -7.14E-03
    70 OT DIIS     0.80E-01   22.2     0.00006065     -6913.3364106447 -6.51E-03
    71 OT DIIS     0.80E-01   16.4     0.00005502     -6913.3398755170 -3.46E-03
    72 OT DIIS     0.80E-01   21.6     0.00004801     -6913.3430902966 -3.21E-03
    73 OT DIIS     0.80E-01   21.1     0.00004244     -6913.3448060947 -1.72E-03
    74 OT DIIS     0.80E-01   19.0     0.00003808     -6913.3456223850 -8.16E-04
    75 OT DIIS     0.80E-01   23.0     0.00003475     -6913.3469710311 -1.35E-03
    76 OT DIIS     0.80E-01   17.1     0.00003461     -6913.3478235695 -8.53E-04
    77 OT DIIS     0.80E-01   20.8     0.00003057     -6913.3488957565 -1.07E-03
    78 OT DIIS     0.80E-01   21.3     0.00002890     -6913.3500334286 -1.14E-03
    79 OT DIIS     0.80E-01   19.0     0.00002755     -6913.3505626974 -5.29E-04
    80 OT DIIS     0.80E-01   22.2     0.00002556     -6913.3516002145 -1.04E-03
    81 OT DIIS     0.80E-01   21.6     0.00002423     -6913.3522307184 -6.31E-04
    82 OT DIIS     0.80E-01   16.8     0.00002347     -6913.3526457441 -4.15E-04
    83 OT DIIS     0.80E-01   21.5     0.00002107     -6913.3532343582 -5.89E-04
    84 OT DIIS     0.80E-01   21.1     0.00002034     -6913.3536109195 -3.77E-04
    85 OT DIIS     0.80E-01   19.0     0.00001941     -6913.3539913702 -3.80E-04
    86 OT DIIS     0.80E-01   23.4     0.00001881     -6913.3544387708 -4.47E-04
    87 OT DIIS     0.80E-01   16.8     0.00001805     -6913.3547184683 -2.80E-04
    88 OT DIIS     0.80E-01   21.1     0.00001709     -6913.3551808844 -4.62E-04
    89 OT DIIS     0.80E-01   21.3     0.00001638     -6913.3554537902 -2.73E-04
    90 OT DIIS     0.80E-01   18.7     0.00001580     -6913.3556500227 -1.96E-04
    91 OT DIIS     0.80E-01   22.3     0.00001477     -6913.3559002869 -2.50E-04
    92 OT DIIS     0.80E-01   18.6     0.00001457     -6913.3561287354 -2.28E-04
    93 OT DIIS     0.80E-01   19.0     0.00001400     -6913.3563506466 -2.22E-04
    94 OT DIIS     0.80E-01   21.2     0.00001364     -6913.3566174556 -2.67E-04
    95 OT DIIS     0.80E-01   19.2     0.00001331     -6913.3567832923 -1.66E-04
    96 OT DIIS     0.80E-01   21.8     0.00001270     -6913.3570381248 -2.55E-04
    97 OT DIIS     0.80E-01   19.8     0.00001239     -6913.3572065482 -1.68E-04
    98 OT DIIS     0.80E-01   17.5     0.00001220     -6913.3573631515 -1.57E-04
    99 OT DIIS     0.80E-01   21.6     0.00001171     -6913.3575576525 -1.95E-04
   100 OT DIIS     0.80E-01   20.9     0.00001142     -6913.3577590129 -2.01E-04

  Leaving inner SCF loop after reaching   100 steps.


  Electronic density on regular grids:      -2431.9999999946        0.0000000054
  Core density on regular grids:             2431.9999999988       -0.0000000012
  Total charge density on r-space grids:        0.0000000043
  Total charge density g-space grids:           0.0000000043

  Overlap energy of the core charge distribution:               0.00159193109730
  Self energy of the core charge distribution:             -16017.19408509233290
  Core Hamiltonian energy:                                   4297.49964540495694
  Hartree energy:                                            6135.72642612680102
  Exchange-correlation energy:                              -1327.28226224587866
  Dispersion energy:                                           -2.10907513755356

  Total energy:                                             -6913.35775901291072

  outer SCF iter =    1 RMS gradient =   0.11E-04 energy =      -6913.3577590129

  ----------------------------------- OT ---------------------------------------
  Minimizer      : DIIS                : direct inversion
                                         in the iterative subspace
                                         using   7 DIIS vectors
                                         safer DIIS on
  Preconditioner : FULL_SINGLE_INVERSE : inversion of 
                                         H + eS - 2*(Sc)(c^T*H*c+const)(Sc)^T
  Precond_solver : DEFAULT
  stepsize       :    0.08000000                  energy_gap     :    0.08000000
  eps_taylor     :   0.10000E-15                  max_taylor     :             4
  ----------------------------------- OT ---------------------------------------

  Step     Update method      Time    Convergence         Total energy    Change
  ------------------------------------------------------------------------------
     1 OT DIIS     0.80E-01   45.3     0.00006265     -6913.3579449864 -1.86E-04
     2 OT DIIS     0.80E-01   20.5     0.00004919     -6913.3594539623 -1.51E-03
     3 OT DIIS     0.80E-01   18.3     0.00008935     -6913.3599469532 -4.93E-04
     4 OT DIIS     0.80E-01   22.8     0.00009090     -6913.3605317319 -5.85E-04
     5 OT DIIS     0.80E-01   16.2     0.00004053     -6913.3610667024 -5.35E-04
     6 OT DIIS     0.80E-01   20.9     0.00003936     -6913.3613456238 -2.79E-04
     7 OT DIIS     0.80E-01   20.4     0.00003081     -6913.3615392946 -1.94E-04
     8 OT DIIS     0.80E-01   20.6     0.00002771     -6913.3617760618 -2.37E-04
     9 OT DIIS     0.80E-01   20.3     0.00002395     -6913.3618692228 -9.32E-05
    10 OT DIIS     0.80E-01   17.3     0.00002467     -6913.3620520967 -1.83E-04
    11 OT DIIS     0.80E-01   20.4     0.00002204     -6913.3622339271 -1.82E-04
    12 OT DIIS     0.80E-01   18.2     0.00002447     -6913.3623657018 -1.32E-04
    13 OT DIIS     0.80E-01   22.7     0.00002602     -6913.3624349536 -6.93E-05
    14 OT DIIS     0.80E-01   16.3     0.00002197     -6913.3625653320 -1.30E-04
    15 OT DIIS     0.80E-01   20.0     0.00002182     -6913.3626725549 -1.07E-04
    16 OT DIIS     0.80E-01   15.7     0.00001959     -6913.3627503002 -7.77E-05
    17 OT DIIS     0.80E-01   17.4     0.00002024     -6913.3627762376 -2.59E-05
    18 OT DIIS     0.80E-01   14.7     0.00001931     -6913.3628887291 -1.12E-04
    19 OT DIIS     0.80E-01   19.4     0.00001827     -6913.3628870932  1.64E-06
    20 OT DIIS     0.80E-01   17.0     0.00001759     -6913.3629415659 -5.45E-05
    21 OT DIIS     0.80E-01   20.3     0.00001782     -6913.3629838534 -4.23E-05
    22 OT DIIS     0.80E-01   20.6     0.00001626     -6913.3630247921 -4.09E-05
    23 OT DIIS     0.80E-01   18.6     0.00001600     -6913.3630818656 -5.71E-05
    24 OT DIIS     0.80E-01   21.7     0.00001575     -6913.3631251673 -4.33E-05
    25 OT DIIS     0.80E-01   16.8     0.00001619     -6913.3631836229 -5.85E-05
    26 OT DIIS     0.80E-01   21.1     0.00001641     -6913.3632769291 -9.33E-05
    27 OT DIIS     0.80E-01   20.0     0.00001729     -6913.3632742701  2.66E-06
    28 OT DIIS     0.80E-01   21.6     0.00001668     -6913.3633330028 -5.87E-05
    29 OT DIIS     0.80E-01   21.8     0.00001766     -6913.3633906501 -5.76E-05
    30 OT DIIS     0.80E-01   16.9     0.00001601     -6913.3634085986 -1.79E-05
    31 OT DIIS     0.80E-01   21.2     0.00001526     -6913.3634497128 -4.11E-05
    32 OT DIIS     0.80E-01   21.1     0.00001448     -6913.3634661427 -1.64E-05
    33 OT DIIS     0.80E-01   18.9     0.00001414     -6913.3635121438 -4.60E-05
    34 OT DIIS     0.80E-01   23.7     0.00001407     -6913.3635721831 -6.00E-05
    35 OT DIIS     0.80E-01   16.7     0.00001480     -6913.3635819538 -9.77E-06
    36 OT DIIS     0.80E-01   21.1     0.00001430     -6913.3636277476 -4.58E-05
    37 OT DIIS     0.80E-01   21.3     0.00001525     -6913.3636954653 -6.77E-05
    38 OT DIIS     0.80E-01   18.7     0.00001494     -6913.3637207933 -2.53E-05
    39 OT DIIS     0.80E-01   22.2     0.00001472     -6913.3637642295 -4.34E-05
    40 OT DIIS     0.80E-01   18.1     0.00001434     -6913.3637697605 -5.53E-06
    41 OT DIIS     0.80E-01   18.5     0.00001382     -6913.3638176774 -4.79E-05
    42 OT DIIS     0.80E-01   21.4     0.00001341     -6913.3638594708 -4.18E-05
    43 OT DIIS     0.80E-01   19.3     0.00001371     -6913.3638679203 -8.45E-06
    44 OT DIIS     0.80E-01   21.7     0.00001298     -6913.3638925468 -2.46E-05
    45 OT DIIS     0.80E-01   20.2     0.00001310     -6913.3639454427 -5.29E-05
    46 OT DIIS     0.80E-01   17.5     0.00001317     -6913.3639714757 -2.60E-05
    47 OT DIIS     0.80E-01   21.6     0.00001310     -6913.3640121612 -4.07E-05
    48 OT DIIS     0.80E-01   20.6     0.00001325     -6913.3640303490 -1.82E-05
    49 OT DIIS     0.80E-01   20.0     0.00001308     -6913.3640866475 -5.63E-05
    50 OT DIIS     0.80E-01   22.8     0.00001297     -6913.3641196465 -3.30E-05
    51 OT DIIS     0.80E-01   16.7     0.00001354     -6913.3641397867 -2.01E-05
    52 OT DIIS     0.80E-01   21.3     0.00001281     -6913.3641445684 -4.78E-06
    53 OT DIIS     0.80E-01   21.1     0.00001253     -6913.3641898761 -4.53E-05
    54 OT DIIS     0.80E-01   18.8     0.00001239     -6913.3642110905 -2.12E-05
    55 OT DIIS     0.80E-01   23.0     0.00001214     -6913.3642402860 -2.92E-05
    56 OT DIIS     0.80E-01   17.0     0.00001218     -6913.3642607494 -2.05E-05
    57 OT DIIS     0.80E-01   21.0     0.00001205     -6913.3643077512 -4.70E-05
    58 OT DIIS     0.80E-01   21.3     0.00001209     -6913.3643374030 -2.97E-05
    59 OT DIIS     0.80E-01   18.7     0.00001260     -6913.3643795016 -4.21E-05
    60 OT DIIS     0.80E-01   22.6     0.00001254     -6913.3643860422 -6.54E-06
    61 OT DIIS     0.80E-01   19.8     0.00001232     -6913.3644250721 -3.90E-05
    62 OT DIIS     0.80E-01   17.7     0.00001224     -6913.3644485431 -2.35E-05
    63 OT DIIS     0.80E-01   21.5     0.00001193     -6913.3644674422 -1.89E-05
    64 OT DIIS     0.80E-01   20.6     0.00001184     -6913.3644860136 -1.86E-05
    65 OT DIIS     0.80E-01   20.1     0.00001160     -6913.3645199578 -3.39E-05
    66 OT DIIS     0.80E-01   22.2     0.00001153     -6913.3645413063 -2.13E-05
    67 OT DIIS     0.80E-01   16.7     0.00001171     -6913.3645849103 -4.36E-05
    68 OT DIIS     0.80E-01   21.5     0.00001190     -6913.3646041104 -1.92E-05
    69 OT DIIS     0.80E-01   21.1     0.00001182     -6913.3646344419 -3.03E-05
    70 OT DIIS     0.80E-01   19.0     0.00001188     -6913.3646667107 -3.23E-05
    71 OT DIIS     0.80E-01   23.5     0.00001179     -6913.3646870847 -2.04E-05
    72 OT DIIS     0.80E-01   16.7     0.00001182     -6913.3647171959 -3.01E-05
    73 OT DIIS     0.80E-01   21.3     0.00001157     -6913.3647399958 -2.28E-05
    74 OT DIIS     0.80E-01   21.3     0.00001142     -6913.3647507001 -1.07E-05
    75 OT DIIS     0.80E-01   18.8     0.00001138     -6913.3647886047 -3.79E-05
    76 OT DIIS     0.80E-01   22.6     0.00001149     -6913.3648120921 -2.35E-05
    77 OT DIIS     0.80E-01   17.5     0.00001141     -6913.3648309682 -1.89E-05
    78 OT DIIS     0.80E-01   20.3     0.00001144     -6913.3648632124 -3.22E-05
    79 OT DIIS     0.80E-01   21.1     0.00001146     -6913.3648884314 -2.52E-05
    80 OT DIIS     0.80E-01   18.9     0.00001157     -6913.3649310272 -4.26E-05
    81 OT DIIS     0.80E-01   21.4     0.00001152     -6913.3649499389 -1.89E-05
    82 OT DIIS     0.80E-01   19.7     0.00001150     -6913.3649622613 -1.23E-05
    83 OT DIIS     0.80E-01   17.8     0.00001140     -6913.3649972747 -3.50E-05
    84 OT DIIS     0.80E-01   21.5     0.00001151     -6913.3650283584 -3.11E-05
    85 OT DIIS     0.80E-01   20.2     0.00001140     -6913.3650342250 -5.87E-06
    86 OT DIIS     0.80E-01   21.3     0.00001126     -6913.3650597630 -2.55E-05
    87 OT DIIS     0.80E-01   22.1     0.00001117     -6913.3650810960 -2.13E-05
    88 OT DIIS     0.80E-01   16.6     0.00001119     -6913.3651211441 -4.00E-05
    89 OT DIIS     0.80E-01   21.5     0.00001125     -6913.3651396438 -1.85E-05
    90 OT DIIS     0.80E-01   21.4     0.00001135     -6913.3651614735 -2.18E-05
    91 OT DIIS     0.80E-01   18.8     0.00001132     -6913.3651912936 -2.98E-05
    92 OT DIIS     0.80E-01   22.6     0.00001149     -6913.3652333853 -4.21E-05
    93 OT DIIS     0.80E-01   16.4     0.00001161     -6913.3652356977 -2.31E-06
    94 OT DIIS     0.80E-01   21.4     0.00001142     -6913.3652565856 -2.09E-05
    95 OT DIIS     0.80E-01   20.9     0.00001118     -6913.3652748959 -1.83E-05
    96 OT DIIS     0.80E-01   18.9     0.00001107     -6913.3653101370 -3.52E-05
    97 OT DIIS     0.80E-01   23.0     0.00001103     -6913.3653234507 -1.33E-05
    98 OT DIIS     0.80E-01   16.9     0.00001103     -6913.3653462125 -2.28E-05
    99 OT DIIS     0.80E-01   21.0     0.00001098     -6913.3653671648 -2.10E-05
   100 OT DIIS     0.80E-01   21.2     0.00001109     -6913.3654097498 -4.26E-05

  Leaving inner SCF loop after reaching   100 steps.


  Electronic density on regular grids:      -2431.9999999946        0.0000000054
  Core density on regular grids:             2431.9999999988       -0.0000000012
  Total charge density on r-space grids:        0.0000000042
  Total charge density g-space grids:           0.0000000042

  Overlap energy of the core charge distribution:               0.00159193109730
  Self energy of the core charge distribution:             -16017.19408509233290
  Core Hamiltonian energy:                                   4297.54683081351868
  Hartree energy:                                            6135.69353695697555
  Exchange-correlation energy:                              -1327.30420922145709
  Dispersion energy:                                           -2.10907513755356

  Total energy:                                             -6913.36540974975196

  outer SCF iter =    2 RMS gradient =   0.11E-04 energy =      -6913.3654097498

  ----------------------------------- OT ---------------------------------------
  Minimizer      : DIIS                : direct inversion
                                         in the iterative subspace
                                         using   7 DIIS vectors
                                         safer DIIS on
  Preconditioner : FULL_SINGLE_INVERSE : inversion of 
                                         H + eS - 2*(Sc)(c^T*H*c+const)(Sc)^T
  Precond_solver : DEFAULT
  stepsize       :    0.08000000                  energy_gap     :    0.08000000
  eps_taylor     :   0.10000E-15                  max_taylor     :             4
  ----------------------------------- OT ---------------------------------------

  Step     Update method      Time    Convergence         Total energy    Change
  ------------------------------------------------------------------------------
     1 OT DIIS     0.80E-01   45.3     0.00001112     -6913.3654201824 -1.04E-05
     2 OT DIIS     0.80E-01   20.3     0.00003065     -6913.3654395679 -1.94E-05
     3 OT DIIS     0.80E-01   18.0     0.00001014     -6913.3654756393 -3.61E-05
     4 OT DIIS     0.80E-01   21.9     0.00000994     -6913.3654900585 -1.44E-05
     5 OT DIIS     0.80E-01   16.5     0.00001186     -6913.3656646567 -1.75E-04
     6 OT DIIS     0.80E-01   20.9     0.00001724     -6913.3662369259 -5.72E-04
     7 OT SD       0.80E-01   19.4     0.00001378     -6913.3662550719 -1.81E-05
     8 OT DIIS     0.80E-01   20.8     0.00002497     -6913.3662634418 -8.37E-06
     9 OT DIIS     0.80E-01   17.4     0.00000965     -6913.3662371840  2.63E-05
    10 OT DIIS     0.80E-01   20.6     0.00001234     -6913.3664858162 -2.49E-04
    11 OT DIIS     0.80E-01   20.6     0.00001077     -6913.3665385228 -5.27E-05
    12 OT DIIS     0.80E-01   18.9     0.00000983     -6913.3665675729 -2.91E-05
    13 OT DIIS     0.80E-01   21.1     0.00000783     -6913.3666983527 -1.31E-04
    14 OT SD       0.80E-01   17.6     0.00000938     -6913.3667906768 -9.23E-05
    15 OT DIIS     0.80E-01   21.6     0.00003325     -6913.3667711663  1.95E-05
    16 OT DIIS     0.80E-01   20.4     0.00000664     -6913.3668486209 -7.75E-05
    17 OT DIIS     0.80E-01   20.6     0.00000694     -6913.3669339764 -8.54E-05
    18 OT DIIS     0.80E-01   20.6     0.00000657     -6913.3669934533 -5.95E-05
    19 OT DIIS     0.80E-01   17.4     0.00000894     -6913.3670198685 -2.64E-05
    20 OT DIIS     0.80E-01   21.5     0.00000656     -6913.3670867062 -6.68E-05
    21 OT DIIS     0.80E-01   21.3     0.00000642     -6913.3671070577 -2.04E-05
    22 OT DIIS     0.80E-01   18.7     0.00000605     -6913.3671240898 -1.70E-05
    23 OT DIIS     0.80E-01   22.7     0.00000597     -6913.3671730080 -4.89E-05
    24 OT DIIS     0.80E-01   17.4     0.00000549     -6913.3671995729 -2.66E-05
    25 OT DIIS     0.80E-01   20.4     0.00000542     -6913.3672513268 -5.18E-05
    26 OT DIIS     0.80E-01   21.1     0.00000537     -6913.3672721589 -2.08E-05
    27 OT DIIS     0.80E-01   18.8     0.00000483     -6913.3673049908 -3.28E-05
    28 OT DIIS     0.80E-01   22.3     0.00000606     -6913.3673185012 -1.35E-05
    29 OT DIIS     0.80E-01   19.2     0.00000461     -6913.3673453468 -2.68E-05
    30 OT DIIS     0.80E-01   18.0     0.00000494     -6913.3673702777 -2.49E-05
    31 OT DIIS     0.80E-01   21.5     0.00000462     -6913.3673956955 -2.54E-05
    32 OT DIIS     0.80E-01   20.5     0.00000439     -6913.3674165807 -2.09E-05
    33 OT DIIS     0.80E-01   20.6     0.00000439     -6913.3674296566 -1.31E-05
    34 OT DIIS     0.80E-01   22.1     0.00000428     -6913.3674529835 -2.33E-05
    35 OT DIIS     0.80E-01   16.7     0.00000438     -6913.3674625553 -9.57E-06
    36 OT DIIS     0.80E-01   21.4     0.00000432     -6913.3674869373 -2.44E-05
    37 OT DIIS     0.80E-01   21.0     0.00000407     -6913.3674922064 -5.27E-06
    38 OT DIIS     0.80E-01   18.7     0.00000538     -6913.3675030017 -1.08E-05
    39 OT DIIS     0.80E-01   23.5     0.00000445     -6913.3675124862 -9.48E-06
    40 OT DIIS     0.80E-01   16.7     0.00000426     -6913.3675156926 -3.21E-06
    41 OT SD       0.80E-01   20.3     0.00000455     -6913.3675186427 -2.95E-06
    42 OT DIIS     0.80E-01   20.8     0.00001723     -6913.3675136474  5.00E-06
    43 OT DIIS     0.80E-01   25.1     0.00000415     -6913.3675365399 -2.29E-05
    44 OT SD       0.80E-01   18.5     0.00000451     -6913.3675366924 -1.53E-07
    45 OT DIIS     0.80E-01   18.2     0.00001800     -6913.3675302714  6.42E-06
    46 OT DIIS     0.80E-01   21.7     0.00000479     -6913.3675626699 -3.24E-05
    47 OT DIIS     0.80E-01   22.1     0.00000526     -6913.3675672893 -4.62E-06
    48 OT SD       0.80E-01   19.5     0.00000375     -6913.3676257132 -5.84E-05
    49 OT DIIS     0.80E-01   21.4     0.00001366     -6913.3676218889  3.82E-06
    50 OT DIIS     0.80E-01   21.3     0.00000305     -6913.3676322692 -1.04E-05
    51 OT SD       0.80E-01   17.5     0.00000276     -6913.3676468390 -1.46E-05
    52 OT DIIS     0.80E-01   21.0     0.00000802     -6913.3676473568 -5.18E-07
    53 OT DIIS     0.80E-01   21.9     0.00000253     -6913.3676626097 -1.53E-05
    54 OT DIIS     0.80E-01   20.1     0.00000255     -6913.3676764565 -1.38E-05
    55 OT SD       0.80E-01   21.0     0.00000241     -6913.3676826720 -6.22E-06
    56 OT DIIS     0.80E-01   22.8     0.00000514     -6913.3676841266 -1.45E-06
    57 OT DIIS     0.80E-01   17.1     0.00000250     -6913.3676946283 -1.05E-05
    58 OT DIIS     0.80E-01   21.3     0.00000244     -6913.3676961482 -1.52E-06
    59 OT DIIS     0.80E-01   21.9     0.00000228     -6913.3677036432 -7.50E-06
    60 OT DIIS     0.80E-01   19.8     0.00000245     -6913.3677164792 -1.28E-05
    61 OT SD       0.80E-01   21.1     0.00000227     -6913.3677270493 -1.06E-05
    62 OT SD       0.80E-01   22.1     0.00000387     -6913.3677284913 -1.44E-06
    63 OT DIIS     0.80E-01   16.7     0.00001487     -6913.3677216168  6.87E-06
    64 OT DIIS     0.80E-01   21.6     0.00000217     -6913.3677331728 -1.16E-05
    65 OT DIIS     0.80E-01   21.2     0.00000227     -6913.3677368951 -3.72E-06
    66 OT SD       0.80E-01   18.6     0.00000224     -6913.3677428916 -6.00E-06
    67 OT DIIS     0.80E-01   23.2     0.00000649     -6913.3677431795 -2.88E-07
    68 OT SD       0.80E-01   16.7     0.00000341     -6913.3677746349 -3.15E-05
    69 OT SD       0.80E-01   21.4     0.00000736     -6913.3677739457  6.89E-07
    70 OT DIIS     0.80E-01   21.1     0.00002916     -6913.3677414029  3.25E-05
    71 OT DIIS     0.80E-01   18.8     0.00000211     -6913.3677690775 -2.77E-05
    72 OT DIIS     0.80E-01   22.8     0.00000237     -6913.3677785317 -9.45E-06
    73 OT SD       0.80E-01   17.7     0.00000226     -6913.3677879291 -9.40E-06
    74 OT DIIS     0.80E-01   20.4     0.00000423     -6913.3677886510 -7.22E-07
    75 OT SD       0.80E-01   21.4     0.00000186     -6913.3677938543 -5.20E-06
    76 OT DIIS     0.80E-01   19.0     0.00000587     -6913.3677938512  3.17E-09
    77 OT DIIS     0.80E-01   22.4     0.00000198     -6913.3678037114 -9.86E-06
    78 OT DIIS     0.80E-01   19.6     0.00000209     -6913.3678056262 -1.91E-06
    79 OT DIIS     0.80E-01   18.0     0.00000213     -6913.3678090271 -3.40E-06
    80 OT SD       0.80E-01   21.7     0.00000230     -6913.3678212613 -1.22E-05
    81 OT SD       0.80E-01   21.1     0.00000514     -6913.3678210055  2.56E-07
    82 OT DIIS     0.80E-01   18.9     0.00002104     -6913.3678043039  1.67E-05
    83 OT DIIS     0.80E-01   23.4     0.00000166     -6913.3678267286 -2.24E-05
    84 OT SD       0.80E-01   16.7     0.00000206     -6913.3678302874 -3.56E-06
    85 OT DIIS     0.80E-01   21.2     0.00000895     -6913.3678281727  2.11E-06
    86 OT DIIS     0.80E-01   21.1     0.00000154     -6913.3678365982 -8.43E-06
    87 OT SD       0.80E-01   18.9     0.00000191     -6913.3678425557 -5.96E-06
    88 OT SD       0.80E-01   23.5     0.00000635     -6913.3678416692  8.87E-07
    89 OT DIIS     0.80E-01   18.1     0.00003387     -6913.3678014277  4.02E-05
    90 OT DIIS     0.80E-01   19.9     0.00000133     -6913.3678454414 -4.40E-05
    91 OT SD       0.80E-01   20.6     0.00000151     -6913.3678465499 -1.11E-06
    92 OT DIIS     0.80E-01   18.8     0.00000614     -6913.3678456720  8.78E-07
    93 OT DIIS     0.80E-01   22.4     0.00000101     -6913.3678481391 -2.47E-06
    94 OT SD       0.80E-01   18.5     0.00000189     -6913.3678546426 -6.50E-06
    95 OT DIIS     0.80E-01   19.1     0.00000833     -6913.3678523210  2.32E-06
    96 OT DIIS     0.80E-01   21.0     0.00000090     -6913.3678550285 -2.71E-06

  *** SCF run converged in    96 steps ***


  Electronic density on regular grids:      -2431.9999999946        0.0000000054
  Core density on regular grids:             2431.9999999988       -0.0000000012
  Total charge density on r-space grids:        0.0000000042
  Total charge density g-space grids:           0.0000000042

  Overlap energy of the core charge distribution:               0.00159193109730
  Self energy of the core charge distribution:             -16017.19408509233290
  Core Hamiltonian energy:                                   4297.54852914815547
  Hartree energy:                                            6135.69028309885562
  Exchange-correlation energy:                              -1327.30509897667821
  Dispersion energy:                                           -2.10907513755356

  Total energy:                                             -6913.36785502845669

  outer SCF iter =    3 RMS gradient =   0.90E-06 energy =      -6913.3678550285
  outer SCF loop converged in   3 iterations or  296 steps


 ENERGY| Total FORCE_EVAL ( QS ) energy [hartree]          -6913.367858646288369

 OPT| **************************************************************************
 OPT| Step number                                                              1
 OPT| Optimization method                                                  LBFGS
 OPT| Total energy [hartree]                                    -6913.3678586463
 OPT| Effective energy change [hartree]                           -26.8179409606
 OPT| Decrease in energy                                                     YES
 OPT| Used time [s]                                                    13292.969
 OPT|
 OPT| Maximum step size                                             0.4724315332
 OPT| Convergence limit for maximum step size                       0.0030000000
 OPT| Maximum step size is converged                                          NO
 OPT|
 OPT| RMS step size                                                 0.0902031209
 OPT| Convergence limit for RMS step size                           0.0015000000
 OPT| RMS step size is converged                                              NO
 OPT|
 OPT| Maximum gradient                                              0.1871697081
 OPT| Convergence limit for maximum gradient                        0.0010000000
 OPT| Maximum gradient is converged                                           NO
 OPT|
 OPT| RMS gradient                                                  0.0210591915
 OPT| Convergence limit for RMS gradient                            0.0005000000
 OPT| RMS gradient is converged                                               NO
 OPT| **************************************************************************
 OPT| Estimated peak process memory after this step [MiB]                   9426

 --------------------------
 OPTIMIZATION STEP:      2
 --------------------------

 Number of electrons:                                                       2432
 Number of occupied orbitals:                                               1216
 Number of molecular orbitals:                                              1216

[...]
 OPT|
 OPT| RMS step size                                                 0.0205113052
 OPT| Convergence limit for RMS step size                           0.0015000000
 OPT| RMS step size is converged                                              NO
 OPT|
 OPT| Maximum gradient                                              0.0395870971
 OPT| Convergence limit for maximum gradient                        0.0010000000
 OPT| Maximum gradient is converged                                           NO
 OPT|
 OPT| RMS gradient                                                  0.0047509552
 OPT| Convergence limit for RMS gradient                            0.0005000000
 OPT| RMS gradient is converged                                               NO
 OPT| **************************************************************************
 OPT| Estimated peak process memory after this step [MiB]                  10064

 --------------------------
 OPTIMIZATION STEP:     30
 --------------------------

 Number of electrons:                                                       2432
 Number of occupied orbitals:                                               1216
 Number of molecular orbitals:                                              1216

 Number of orbital functions:                                               4983
 Number of independent orbital functions:                                   4983

 Extrapolation method: ASPC


 SCF WAVEFUNCTION OPTIMIZATION

  ----------------------------------- OT ---------------------------------------
  Minimizer      : DIIS                : direct inversion
                                         in the iterative subspace
                                         using   7 DIIS vectors
                                         safer DIIS on
  Preconditioner : FULL_SINGLE_INVERSE : inversion of 
                                         H + eS - 2*(Sc)(c^T*H*c+const)(Sc)^T
  Precond_solver : DEFAULT
  stepsize       :    0.08000000                  energy_gap     :    0.08000000
  eps_taylor     :   0.10000E-15                  max_taylor     :             4
  ----------------------------------- OT ---------------------------------------

  Step     Update method      Time    Convergence         Total energy    Change
  ------------------------------------------------------------------------------
     1 OT DIIS     0.80E-01   20.3     0.00052425     -6921.7260267319 -6.92E+03
     2 OT DIIS     0.80E-01   22.2     0.00041590     -6921.7921052303 -6.61E-02
     3 OT DIIS     0.80E-01   16.8     0.00033427     -6921.8095774959 -1.75E-02
     4 OT DIIS     0.80E-01   20.2     0.00021345     -6921.8234014855 -1.38E-02
     5 OT DIIS     0.80E-01   21.0     0.00020872     -6921.8285323124 -5.13E-03
     6 OT DIIS     0.80E-01   18.0     0.00014075     -6921.8306574852 -2.13E-03
     7 OT DIIS     0.80E-01   21.6     0.00005707     -6921.8319300912 -1.27E-03
     8 OT DIIS     0.80E-01   18.5     0.00006167     -6921.8321753450 -2.45E-04
     9 OT DIIS     0.80E-01   17.7     0.00003333     -6921.8323451589 -1.70E-04
    10 OT DIIS     0.80E-01   21.1     0.00002119     -6921.8324286558 -8.35E-05
    11 OT DIIS     0.80E-01   20.7     0.00001588     -6921.8324738719 -4.52E-05
    12 OT DIIS     0.80E-01   18.4     0.00001300     -6921.8324963087 -2.24E-05
    13 OT DIIS     0.80E-01   15.7     0.00001022     -6921.8325126308 -1.63E-05
    14 OT DIIS     0.80E-01   21.7     0.00000973     -6921.8325242550 -1.16E-05
    15 OT DIIS     0.80E-01   14.1     0.00000795     -6921.8325324686 -8.21E-06
    16 OT DIIS     0.80E-01   15.7     0.00000642     -6921.8325412712 -8.80E-06
    17 OT DIIS     0.80E-01   20.7     0.00000736     -6921.8325492115 -7.94E-06
    18 OT DIIS     0.80E-01   16.9     0.00000545     -6921.8325561487 -6.94E-06
    19 OT DIIS     0.80E-01   20.7     0.00000536     -6921.8325616911 -5.54E-06
    20 OT DIIS     0.80E-01   21.2     0.00000577     -6921.8325661707 -4.48E-06
    21 OT DIIS     0.80E-01   18.9     0.00000498     -6921.8325700218 -3.85E-06
    22 OT DIIS     0.80E-01   20.9     0.00000498     -6921.8325720639 -2.04E-06
    23 OT DIIS     0.80E-01   19.5     0.00000483     -6921.8325735820 -1.52E-06
    24 OT DIIS     0.80E-01   17.3     0.00000361     -6921.8325751658 -1.58E-06
    25 OT DIIS     0.80E-01   20.6     0.00000380     -6921.8325761280 -9.62E-07
    26 OT DIIS     0.80E-01   21.3     0.00000279     -6921.8325764881 -3.60E-07
    27 OT DIIS     0.80E-01   17.8     0.00000227     -6921.8325772759 -7.88E-07
    28 OT DIIS     0.80E-01   21.9     0.00000216     -6921.8325777305 -4.55E-07
    29 OT DIIS     0.80E-01   13.2     0.00000187     -6921.8325781497 -4.19E-07
    30 OT DIIS     0.80E-01   21.9     0.00000181     -6921.8325785470 -3.97E-07
    31 OT DIIS     0.80E-01   16.4     0.00000182     -6921.8325789427 -3.96E-07
    32 OT DIIS     0.80E-01   20.2     0.00000163     -6921.8325793973 -4.55E-07
    33 OT DIIS     0.80E-01   20.3     0.00000184     -6921.8325798173 -4.20E-07
    34 OT DIIS     0.80E-01   16.9     0.00000180     -6921.8325800398 -2.22E-07
    35 OT DIIS     0.80E-01   20.6     0.00000156     -6921.8325804818 -4.42E-07
    36 OT DIIS     0.80E-01   21.2     0.00000165     -6921.8325807015 -2.20E-07
    37 OT DIIS     0.80E-01   17.9     0.00000151     -6921.8325808364 -1.35E-07
    38 OT DIIS     0.80E-01   22.4     0.00000138     -6921.8325809861 -1.50E-07
    39 OT DIIS     0.80E-01   17.3     0.00000125     -6921.8325811170 -1.31E-07
    40 OT DIIS     0.80E-01   19.3     0.00000100     -6921.8325812294 -1.12E-07
    41 OT DIIS     0.80E-01   21.2     0.00000096     -6921.8325813334 -1.04E-07

  *** SCF run converged in    41 steps ***


  Electronic density on regular grids:      -2431.9999999215        0.0000000785
  Core density on regular grids:             2431.9999999988       -0.0000000012
  Total charge density on r-space grids:        0.0000000773
  Total charge density g-space grids:           0.0000000773

  Overlap energy of the core charge distribution:               0.00000891583815
  Self energy of the core charge distribution:             -16017.19408509233290
  Core Hamiltonian energy:                                   4271.89720313817543
  Hartree energy:                                            6147.58565574871773
  Exchange-correlation energy:                              -1322.01429532492966
  Dispersion energy:                                           -2.10706871884643

  Total energy:                                             -6921.83258133337677

  outer SCF iter =    1 RMS gradient =   0.96E-06 energy =      -6921.8325813334
  outer SCF loop converged in   1 iterations or   41 steps


 ENERGY| Total FORCE_EVAL ( QS ) energy [hartree]          -6921.832581412774744

 OPT| **************************************************************************
 OPT| Step number                                                             30
 OPT| Optimization method                                                  LBFGS
 OPT| Total energy [hartree]                                    -6921.8325814128
 OPT| Effective energy change [hartree]                            -0.0395971703
 OPT| Decrease in energy                                                     YES
 OPT| Used time [s]                                                      838.524
 OPT|
 OPT| Maximum step size                                             0.1344210041
 OPT| Convergence limit for maximum step size                       0.0030000000
 OPT| Maximum step size is converged                                          NO
 OPT|
 OPT| RMS step size                                                 0.0219475144
 OPT| Convergence limit for RMS step size                           0.0015000000
 OPT| RMS step size is converged                                              NO
 OPT|
 OPT| Maximum gradient                                              0.0234639093
 OPT| Convergence limit for maximum gradient                        0.0010000000
 OPT| Maximum gradient is converged                                           NO
 OPT|
 OPT| RMS gradient                                                  0.0042918259
 OPT| Convergence limit for RMS gradient                            0.0005000000
 OPT| RMS gradient is converged                                               NO
 OPT| **************************************************************************
 OPT| Estimated peak process memory after this step [MiB]                  10064

 --------------------------
 OPTIMIZATION STEP:     31
 --------------------------

 Number of electrons:                                                       2432
 Number of occupied orbitals:                                               1216
 Number of molecular orbitals:                                              1216

 Number of orbital functions:                                               4983
 Number of independent orbital functions:                                   4983

 Extrapolation method: ASPC


 SCF WAVEFUNCTION OPTIMIZATION

  ----------------------------------- OT ---------------------------------------
  Minimizer      : DIIS                : direct inversion
                                         in the iterative subspace
                                         using   7 DIIS vectors
                                         safer DIIS on
  Preconditioner : FULL_SINGLE_INVERSE : inversion of 
                                         H + eS - 2*(Sc)(c^T*H*c+const)(Sc)^T
  Precond_solver : DEFAULT
  stepsize       :    0.08000000                  energy_gap     :    0.08000000
  eps_taylor     :   0.10000E-15                  max_taylor     :             4
  ----------------------------------- OT ---------------------------------------

  Step     Update method      Time    Convergence         Total energy    Change
  ------------------------------------------------------------------------------
     1 OT DIIS     0.80E-01   17.6     0.00044679     -6921.7941419276 -6.92E+03
     2 OT DIIS     0.80E-01   15.7     0.00045322     -6921.8330811853 -3.89E-02
     3 OT DIIS     0.80E-01   20.8     0.00038674     -6921.8454776400 -1.24E-02
     4 OT DIIS     0.80E-01   17.1     0.00021554     -6921.8566870779 -1.12E-02
     5 OT DIIS     0.80E-01   20.5     0.00023492     -6921.8605647766 -3.88E-03
     6 OT DIIS     0.80E-01   18.6     0.00020240     -6921.8627102068 -2.15E-03
     7 OT DIIS     0.80E-01   21.7     0.00010840     -6921.8641354955 -1.43E-03
     8 OT DIIS     0.80E-01   16.7     0.00006764     -6921.8646234553 -4.88E-04
     9 OT DIIS     0.80E-01   20.4     0.00005854     -6921.8648007288 -1.77E-04
    10 OT DIIS     0.80E-01   21.0     0.00003370     -6921.8649301150 -1.29E-04
    11 OT DIIS     0.80E-01   17.8     0.00003206     -6921.8649639639 -3.38E-05
    12 OT DIIS     0.80E-01   22.1     0.00002455     -6921.8650043574 -4.04E-05
    13 OT DIIS     0.80E-01   17.2     0.00001800     -6921.8650278309 -2.35E-05
    14 OT DIIS     0.80E-01   19.6     0.00002123     -6921.8650322784 -4.45E-06
    15 OT DIIS     0.80E-01   21.1     0.00001588     -6921.8650428670 -1.06E-05
    16 OT DIIS     0.80E-01   18.2     0.00001081     -6921.8650529602 -1.01E-05
    17 OT DIIS     0.80E-01   18.1     0.00000892     -6921.8650594007 -6.44E-06
    18 OT DIIS     0.80E-01   19.2     0.00000800     -6921.8650622928 -2.89E-06
    19 OT DIIS     0.80E-01   15.6     0.00000777     -6921.8650657605 -3.47E-06
    20 OT DIIS     0.80E-01   15.7     0.00000631     -6921.8650691605 -3.40E-06
    21 OT DIIS     0.80E-01   20.9     0.00000586     -6921.8650714131 -2.25E-06
    22 OT DIIS     0.80E-01   19.5     0.00000664     -6921.8650731781 -1.77E-06
    23 OT DIIS     0.80E-01   17.1     0.00000655     -6921.8650744225 -1.24E-06
    24 OT DIIS     0.80E-01   20.8     0.00000507     -6921.8650761090 -1.69E-06
    25 OT DIIS     0.80E-01   21.0     0.00000422     -6921.8650773219 -1.21E-06
    26 OT DIIS     0.80E-01   18.0     0.00000419     -6921.8650781768 -8.55E-07
    27 OT DIIS     0.80E-01   22.4     0.00000392     -6921.8650789923 -8.15E-07
    28 OT DIIS     0.80E-01   16.6     0.00000323     -6921.8650796821 -6.90E-07
    29 OT DIIS     0.80E-01   20.2     0.00000278     -6921.8650802646 -5.83E-07
    30 OT DIIS     0.80E-01   20.9     0.00000287     -6921.8650808715 -6.07E-07
    31 OT DIIS     0.80E-01   17.8     0.00000307     -6921.8650812719 -4.00E-07
    32 OT DIIS     0.80E-01   21.8     0.00000257     -6921.8650816775 -4.06E-07
    33 OT DIIS     0.80E-01   12.7     0.00000227     -6921.8650820114 -3.34E-07
    34 OT DIIS     0.80E-01   22.1     0.00000233     -6921.8650824490 -4.38E-07
    35 OT DIIS     0.80E-01   16.0     0.00000231     -6921.8650826742 -2.25E-07
    36 OT DIIS     0.80E-01   21.0     0.00000214     -6921.8650828423 -1.68E-07
    37 OT DIIS     0.80E-01   18.9     0.00000173     -6921.8650830502 -2.08E-07
    38 OT DIIS     0.80E-01   17.5     0.00000167     -6921.8650832568 -2.07E-07
    39 OT DIIS     0.80E-01   20.8     0.00000171     -6921.8650834126 -1.56E-07
    40 OT DIIS     0.80E-01   20.5     0.00000141     -6921.8650835287 -1.16E-07
    41 OT DIIS     0.80E-01   17.9     0.00000125     -6921.8650836347 -1.06E-07
    42 OT DIIS     0.80E-01   22.5     0.00000119     -6921.8650838222 -1.87E-07
    43 OT DIIS     0.80E-01   16.8     0.00000127     -6921.8650839045 -8.23E-08
    44 OT DIIS     0.80E-01   20.3     0.00000130     -6921.8650839795 -7.51E-08
    45 OT DIIS     0.80E-01   21.0     0.00000109     -6921.8650840702 -9.07E-08
    46 OT DIIS     0.80E-01   17.8     0.00000109     -6921.8650841487 -7.85E-08
    47 OT DIIS     0.80E-01   21.8     0.00000110     -6921.8650842197 -7.11E-08
    48 OT DIIS     0.80E-01   17.2     0.00000093     -6921.8650842616 -4.19E-08

  *** SCF run converged in    48 steps ***


  Electronic density on regular grids:      -2431.9999999232        0.0000000768
  Core density on regular grids:             2431.9999999988       -0.0000000012
  Total charge density on r-space grids:        0.0000000757
  Total charge density g-space grids:           0.0000000757

  Overlap energy of the core charge distribution:               0.00000940239193
  Self energy of the core charge distribution:             -16017.19408509233290
  Core Hamiltonian energy:                                   4271.68709455833232
  Hartree energy:                                            6147.71909338309797
  Exchange-correlation energy:                              -1321.97157561043423
  Dispersion energy:                                           -2.10562090269409

  Total energy:                                             -6921.86508426163800

  outer SCF iter =    1 RMS gradient =   0.93E-06 energy =      -6921.8650842616
  outer SCF loop converged in   1 iterations or   48 steps


 ENERGY| Total FORCE_EVAL ( QS ) energy [hartree]          -6921.865084301905881

 OPT| **************************************************************************
 OPT| Step number                                                             31
 OPT| Optimization method                                                  LBFGS
 OPT| Total energy [hartree]                                    -6921.8650843019
 OPT| Effective energy change [hartree]                            -0.0325028891
 OPT| Decrease in energy                                                     YES
 OPT| Used time [s]                                                      957.489
 OPT|
 OPT| Maximum step size                                             0.1194208755
 OPT| Convergence limit for maximum step size                       0.0030000000
 OPT| Maximum step size is converged                                          NO
 OPT|
 OPT| RMS step size                                                 0.0192661738
 OPT| Convergence limit for RMS step size                           0.0015000000
 OPT| RMS step size is converged                                              NO
 OPT|
 OPT| Maximum gradient                                              0.0200913452
 OPT| Convergence limit for maximum gradient                        0.0010000000
 OPT| Maximum gradient is converged                                           NO
 OPT|
 OPT| RMS gradient                                                  0.0036455747
 OPT| Convergence limit for RMS gradient                            0.0005000000
 OPT| RMS gradient is converged                                               NO
 OPT| **************************************************************************
 OPT| Estimated peak process memory after this step [MiB]                  10064

 --------------------------
 OPTIMIZATION STEP:     32
 --------------------------

 Number of electrons:                                                       2432
 Number of occupied orbitals:                                               1216
 Number of molecular orbitals:                                              1216

 Number of orbital functions:                                               4983
 Number of independent orbital functions:                                   4983

 Extrapolation method: ASPC


 SCF WAVEFUNCTION OPTIMIZATION

  ----------------------------------- OT ---------------------------------------
  Minimizer      : DIIS                : direct inversion
                                         in the iterative subspace
                                         using   7 DIIS vectors
                                         safer DIIS on
  Preconditioner : FULL_SINGLE_INVERSE : inversion of 
                                         H + eS - 2*(Sc)(c^T*H*c+const)(Sc)^T
  Precond_solver : DEFAULT
  stepsize       :    0.08000000                  energy_gap     :    0.08000000
  eps_taylor     :   0.10000E-15                  max_taylor     :             4
  ----------------------------------- OT ---------------------------------------

  Step     Update method      Time    Convergence         Total energy    Change
  ------------------------------------------------------------------------------
     1 OT DIIS     0.80E-01   17.2     0.00033897     -6921.8507251109 -6.92E+03
     2 OT DIIS     0.80E-01   16.5     0.00029913     -6921.8760383038 -2.53E-02
     3 OT DIIS     0.80E-01   19.8     0.00022828     -6921.8836424474 -7.60E-03
     4 OT DIIS     0.80E-01   21.3     0.00014097     -6921.8894392119 -5.80E-03
     5 OT DIIS     0.80E-01   16.8     0.00014857     -6921.8914866394 -2.05E-03
     6 OT DIIS     0.80E-01   20.4     0.00009683     -6921.8924929876 -1.01E-03
     7 OT DIIS     0.80E-01   21.1     0.00004501     -6921.8930233261 -5.30E-04
     8 OT DIIS     0.80E-01   17.9     0.00003244     -6921.8931808192 -1.57E-04
     9 OT DIIS     0.80E-01   22.6     0.00002424     -6921.8932345161 -5.37E-05
    10 OT DIIS     0.80E-01   16.8     0.00001410     -6921.8932664054 -3.19E-05
    11 OT DIIS     0.80E-01   20.2     0.00000918     -6921.8932832038 -1.68E-05
    12 OT DIIS     0.80E-01   21.1     0.00000829     -6921.8932881426 -4.94E-06
    13 OT DIIS     0.80E-01   18.3     0.00000600     -6921.8932916887 -3.55E-06
    14 OT DIIS     0.80E-01   21.4     0.00000622     -6921.8932931894 -1.50E-06
    15 OT DIIS     0.80E-01   13.2     0.00000410     -6921.8932947617 -1.57E-06
    16 OT DIIS     0.80E-01   21.8     0.00000297     -6921.8932957517 -9.90E-07
    17 OT DIIS     0.80E-01   16.3     0.00000290     -6921.8932963931 -6.41E-07
    18 OT DIIS     0.80E-01   19.5     0.00000222     -6921.8932970143 -6.21E-07
    19 OT DIIS     0.80E-01   19.7     0.00000178     -6921.8932973803 -3.66E-07
    20 OT DIIS     0.80E-01   17.7     0.00000195     -6921.8932976778 -2.98E-07
    21 OT DIIS     0.80E-01   21.4     0.00000168     -6921.8932979604 -2.83E-07
    22 OT DIIS     0.80E-01   20.5     0.00000168     -6921.8932981483 -1.88E-07
