 DBCSR| CPU Multiplication driver                                           XSMM (U)
 DBCSR| Multrec recursion limit                                              512 (U)
 DBCSR| Multiplication stack size                                          30000 (D)
 DBCSR| Maximum elements for images                                    UNLIMITED (U)
 DBCSR| Multiplicative factor virtual images                                   1 (U)
 DBCSR| Use multiplication densification                                       F (D)
 DBCSR| Multiplication size stacks                                             3 (U)
 DBCSR| Use memory pool for CPU allocation                                     F (U)
 DBCSR| Number of 3D layers                                               SINGLE (U)
 DBCSR| Use MPI memory allocation                                              F (U)
 DBCSR| Use RMA algorithm                                                      F (U)
 DBCSR| Use Communication thread                                               T (U)
 DBCSR| Communication thread load                                             30 (D)
 DBCSR| MPI: My process id                                                     0
 DBCSR| MPI: Number of processes                                               1
 DBCSR| OMP: Current number of threads                                        16
 DBCSR| OMP: Max number of threads                                            16
 DBCSR| ACC: Number of devices/node                                            1
 DBCSR| ACC: Number of stack-buffers per thread                                8 (U)
 DBCSR| ACC: Avoid driver after busy                                           F (U)
 DBCSR| ACC: Process inhomogeneous stacks                                      T (U)
 DBCSR| ACC: Min. flop for processing                                          0 (U)
 DBCSR| ACC: Use G2G algorithm                                                 F (D)
 DBCSR| ACC: Min. flop for sorting                                          4000 (U)
 DBCSR| ACC: Number of binning bins                                         4096 (U)
 DBCSR| ACC: Size of binning bins                                             16 (U)
 DBCSR| ACC: GPU backend is enabled                                            T (D)
 DBCSR| Split modifier for TAS multiplication algorithm                  1.0E+00 (U)


  **** **** ******  **  PROGRAM STARTED AT               2025-10-06 07:43:36.089
 ***** ** ***  *** **   PROGRAM STARTED ON                          7a33d80cf826
 **    ****   ******    PROGRAM STARTED BY                             <unknown>
 ***** **    ** ** **   PROGRAM PROCESS ID                                   614
  **** **  *******  **  PROGRAM STARTED IN                             /mnt/cp2k

 CP2K| version string:                                       CP2K version 2025.1
 CP2K| source code revision number:                                  git:9635df4
 CP2K| cp2kflags: omp libint fftw3 libxc libgrpp pexsi elpa elpa_nvidia_gpu para
 CP2K|            llel scalapack cosma quip xsmm dbcsr_acc plumed2 spglib libdft
 CP2K|            td4 sirius libvori libbqb offload_cuda spla_gemm_offloading li
 CP2K|            ibvdwxc hdf5 trexio
 CP2K| is freely available from                            https://www.cp2k.org/
 CP2K| Program compiled at                          Tue Jan 14 21:07:27 UTC 2025
 CP2K| Program compiled on                                          eb3a76499499
 CP2K| Program compiled for                                           local_cuda
 CP2K| Data directory path                                        /opt/cp2k/data
 CP2K| Input file name                                           HAP_304_opt.inp

 GLOBAL| Force Environment number                                              1
 GLOBAL| Basis set file name                                        BASIS_MOLOPT
 GLOBAL| Potential file name                                      GTH_POTENTIALS
 GLOBAL| MM Potential file name                                     MM_POTENTIAL
 GLOBAL| Coordinate file name                                  HAP_304_clean.xyz
 GLOBAL| Method name                                                        CP2K
 GLOBAL| Project name                                                HAP_304_opt
 GLOBAL| Run type                                                        GEO_OPT
 GLOBAL| FFT library                                                       FFTW3
 GLOBAL| Diagonalization library                                            ELPA
 GLOBAL| DGEMM library                                                      SPLA
 GLOBAL| Minimum number of eigenvectors for ELPA usage                        16
 GLOBAL| Orthonormality check for eigenvectors                          DISABLED
 GLOBAL| Matrix multiplication library                                     COSMA
 GLOBAL| All-to-all communication in single precision                          F
 GLOBAL| FFTs using library dependent lengths                                  F
 GLOBAL| Grid backend                                                       AUTO
 GLOBAL| Global print level                                                  LOW
 GLOBAL| MPI I/O enabled                                                       T
 GLOBAL| Total number of message passing processes                             1
 GLOBAL| Number of threads for this process                                   16
 GLOBAL| This output is from process                                           0
 GLOBAL| OpenMP stack size per thread (OMP_STACKSIZE)                        16M
 GLOBAL| CPU model name                           Intel(R) Core(TM) Ultra 7 265K
 GLOBAL| CPUID                                                              1002
 GLOBAL| Compiled for CPUID                                                    0

 *** HINT in environment.F:928 :: The compiler target flags (generic) used ***
 *** to build this binary cannot exploit all extensions of this CPU model  ***
 *** (x86_avx2). Consider compiler target flags as part of FCFLAGS and     ***
 *** CFLAGS (ARCH file).                                                   ***


 MEMORY| system memory details [Kb]
 MEMORY|                        rank 0           min           max       average
 MEMORY| MemTotal             49330324      49330324      49330324      49330324
 MEMORY| MemFree              47721972      47721972      47721972      47721972
 MEMORY| Buffers                 40200         40200         40200         40200
 MEMORY| Cached                 716476        716476        716476        716476
 MEMORY| Slab                   114244        114244        114244        114244
 MEMORY| SReclaimable            38412         38412         38412         38412
 MEMORY| MemLikelyFree        48517060      48517060      48517060      48517060


 GENERATE|  Preliminary Number of Bonds generated:                             0
 GENERATE|  Achieved consistency in connectivity generation.

 *******************************************************************************
 *******************************************************************************
 **                                                                           **
 **     #####                         ##              ##                      **
 **    ##   ##            ##          ##              ##                      **
 **   ##     ##                       ##            ######                    **
 **   ##     ##  ##   ##  ##   #####  ##  ##   ####   ##    #####    #####    **
 **   ##     ##  ##   ##  ##  ##      ## ##   ##      ##   ##   ##  ##   ##   **
 **   ##  ## ##  ##   ##  ##  ##      ####     ###    ##   ######   ######    **
 **    ##  ###   ##   ##  ##  ##      ## ##      ##   ##   ##       ##        **
 **     #######   #####   ##   #####  ##  ##  ####    ##    #####   ##        **
 **           ##                                                    ##        **
 **                                                                           **
 **                                                ... make the atoms dance   **
 **                                                                           **
 **            Copyright (C) by CP2K developers group (2000-2025)             **
 **                      J. Chem. Phys. 152, 194103 (2020)                    **
 **                                                                           **
 *******************************************************************************


 TOTAL NUMBERS AND MAXIMUM NUMBERS

  Total number of            - Atomic kinds:                                   5
                             - Atoms:                                        387
                             - Shell sets:                                   387
                             - Shells:                                      2015
                             - Primitive Cartesian functions:               2031
                             - Cartesian basis functions:                   5338
                             - Spherical basis functions:                   4983

  Maximum angular momentum of- Orbital basis functions:                        2
                             - Local part of the GTH pseudopotential:          2
                             - Non-local part of the GTH pseudopotential:      3


 SCF PARAMETERS         Density guess:                                    ATOMIC
                        --------------------------------------------------------
                        max_scf:                                             100
                        max_scf_history:                                       0
                        max_diis:                                              4
                        --------------------------------------------------------
                        eps_scf:                                        1.00E-06
                        eps_scf_history:                                0.00E+00
                        eps_diis:                                       1.00E-01
                        eps_eigval:                                     1.00E-05
                        --------------------------------------------------------
                        level_shift [a.u.]:                             0.000000
                        --------------------------------------------------------
                        Outer loop SCF in use 
                        No variables optimised in outer loop
                        eps_scf                                         1.00E-06
                        max_scf                                               50
                        No outer loop optimization
                        step_size                                       5.00E-01

 *******************************************************************************
 ***                     STARTING GEOMETRY OPTIMIZATION                      ***
 ***                                 L-BFGS                                  ***
 *******************************************************************************

 --------------------------
 OPTIMIZATION STEP:      1
 --------------------------

 Number of electrons:                                                       2432
 Number of occupied orbitals:                                               1216
 Number of molecular orbitals:                                              1216

 Number of orbital functions:                                               4983
 Number of independent orbital functions:                                   4983

 Extrapolation method: initial_guess


 SCF WAVEFUNCTION OPTIMIZATION

  ----------------------------------- OT ---------------------------------------
  Minimizer      : DIIS                : direct inversion
                                         in the iterative subspace
                                         using   7 DIIS vectors
                                         safer DIIS on
  Preconditioner : FULL_SINGLE_INVERSE : inversion of 
                                         H + eS - 2*(Sc)(c^T*H*c+const)(Sc)^T
  Precond_solver : DEFAULT
  stepsize       :    0.08000000                  energy_gap     :    0.08000000
  eps_taylor     :   0.10000E-15                  max_taylor     :             4
  ----------------------------------- OT ---------------------------------------

  Step     Update method      Time    Convergence         Total energy    Change
  ------------------------------------------------------------------------------
     1 OT DIIS     0.80E-01   32.6     0.01626096     -6707.6565335895 -6.71E+03
     2 OT DIIS     0.80E-01   12.0     0.01198617     -6781.6372748913 -7.40E+01
     3 OT DIIS     0.80E-01   11.9     0.01313930     -6802.0936640502 -2.05E+01
     4 OT DIIS     0.80E-01   11.8     0.00622751     -6826.3718819683 -2.43E+01
     5 OT DIIS     0.80E-01   11.7     0.00417049     -6852.0706148614 -2.57E+01
     6 OT DIIS     0.80E-01   11.6     0.00319069     -6866.9219974228 -1.49E+01
     7 OT DIIS     0.80E-01   11.7     0.00273697     -6874.7948272149 -7.87E+00
     8 OT DIIS     0.80E-01   11.5     0.00215358     -6880.4183088492 -5.62E+00
     9 OT DIIS     0.80E-01   11.5     0.00164502     -6886.1577897207 -5.74E+00
    10 OT DIIS     0.80E-01   11.5     0.00130415     -6889.5947822764 -3.44E+00
    11 OT DIIS     0.80E-01   11.5     0.00103124     -6891.9530530262 -2.36E+00
    12 OT DIIS     0.80E-01   11.5     0.00082410     -6893.5930711869 -1.64E+00
    13 OT DIIS     0.80E-01   11.4     0.00068480     -6894.6008694851 -1.01E+00
    14 OT DIIS     0.80E-01   11.7     0.00058586     -6895.2846143290 -6.84E-01
    15 OT DIIS     0.80E-01   11.7     0.00048828     -6895.9181123342 -6.33E-01
    16 OT DIIS     0.80E-01   11.7     0.00042009     -6896.3425803991 -4.24E-01
    17 OT DIIS     0.80E-01   11.8     0.00036865     -6896.6319400146 -2.89E-01
    18 OT DIIS     0.80E-01   11.3     0.00032551     -6896.8748911146 -2.43E-01
    19 OT DIIS     0.80E-01   12.0     0.00028564     -6897.0956547907 -2.21E-01
    20 OT DIIS     0.80E-01   11.8     0.00025770     -6897.2437117406 -1.48E-01
    21 OT DIIS     0.80E-01   11.9     0.00023103     -6897.3854182938 -1.42E-01
    22 OT DIIS     0.80E-01   11.5     0.00020583     -6897.5174786541 -1.32E-01
    23 OT DIIS     0.80E-01   11.9     0.00018706     -6897.6098094812 -9.23E-02
    24 OT DIIS     0.80E-01   12.1     0.00017238     -6897.6789667918 -6.92E-02
    25 OT DIIS     0.80E-01   11.7     0.00015674     -6897.7511478678 -7.22E-02
    26 OT DIIS     0.80E-01   11.7     0.00014214     -6897.8150537877 -6.39E-02
    27 OT DIIS     0.80E-01   11.6     0.00013193     -6897.8543347572 -3.93E-02
    28 OT DIIS     0.80E-01   11.4     0.00012137     -6897.8979063925 -4.36E-02
    29 OT DIIS     0.80E-01   11.7     0.00011069     -6897.9424277819 -4.45E-02
    30 OT DIIS     0.80E-01   12.2     0.00010361     -6897.9703994040 -2.80E-02
    31 OT DIIS     0.80E-01   11.7     0.00009593     -6897.9993073723 -2.89E-02
    32 OT DIIS     0.80E-01   12.1     0.00008862     -6898.0294347019 -3.01E-02
    33 OT DIIS     0.80E-01   12.0     0.00008319     -6898.0506813947 -2.12E-02
    34 OT DIIS     0.80E-01   11.8     0.00007900     -6898.0644799558 -1.38E-02
    35 OT DIIS     0.80E-01   11.7     0.00007373     -6898.0840998234 -1.96E-02
    36 OT DIIS     0.80E-01   11.6     0.00006793     -6898.1052289206 -2.11E-02
    37 OT DIIS     0.80E-01   11.6     0.00006402     -6898.1185440072 -1.33E-02
    38 OT DIIS     0.80E-01   11.8     0.00006047     -6898.1298665047 -1.13E-02
    39 OT DIIS     0.80E-01   11.7     0.00005531     -6898.1477985542 -1.79E-02
    40 OT DIIS     0.80E-01   12.1     0.00005240     -6898.1581559905 -1.04E-02
    41 OT DIIS     0.80E-01   11.3     0.00005034     -6898.1642938214 -6.14E-03
    42 OT DIIS     0.80E-01   11.8     0.00004702     -6898.1757206843 -1.14E-02
    43 OT DIIS     0.80E-01   11.8     0.00004426     -6898.1851857614 -9.47E-03
    44 OT DIIS     0.80E-01   11.4     0.00004242     -6898.1917233773 -6.54E-03
    45 OT DIIS     0.80E-01   11.4     0.00004076     -6898.1968955402 -5.17E-03
    46 OT DIIS     0.80E-01   11.4     0.00003843     -6898.2059305368 -9.03E-03
    47 OT DIIS     0.80E-01   11.9     0.00003660     -6898.2129689853 -7.04E-03
    48 OT DIIS     0.80E-01   11.7     0.00003543     -6898.2164351345 -3.47E-03
    49 OT DIIS     0.80E-01   11.8     0.00003334     -6898.2241070142 -7.67E-03
    50 OT DIIS     0.80E-01   11.7     0.00003152     -6898.2302003140 -6.09E-03
    51 OT DIIS     0.80E-01   11.8     0.00003049     -6898.2340335713 -3.83E-03
    52 OT DIIS     0.80E-01   11.6     0.00002932     -6898.2374924096 -3.46E-03
    53 OT DIIS     0.80E-01   12.2     0.00002787     -6898.2430923706 -5.60E-03
    54 OT DIIS     0.80E-01   11.7     0.00002680     -6898.2471045451 -4.01E-03
    55 OT DIIS     0.80E-01   12.0     0.00002606     -6898.2497555162 -2.65E-03
    56 OT DIIS     0.80E-01   11.7     0.00002488     -6898.2543622855 -4.61E-03
    57 OT DIIS     0.80E-01   11.7     0.00002393     -6898.2582980759 -3.94E-03
    58 OT DIIS     0.80E-01   11.6     0.00002338     -6898.2606520154 -2.35E-03
    59 OT DIIS     0.80E-01   11.0     0.00002273     -6898.2626158103 -1.96E-03
    60 OT DIIS     0.80E-01   11.8     0.00002196     -6898.2663119340 -3.70E-03
    61 OT DIIS     0.80E-01   11.8     0.00002099     -6898.2698073022 -3.50E-03
    62 OT DIIS     0.80E-01   11.4     0.00002044     -6898.2718859980 -2.08E-03
    63 OT DIIS     0.80E-01   11.9     0.00001959     -6898.2751154354 -3.23E-03
    64 OT DIIS     0.80E-01   11.6     0.00001902     -6898.2773496772 -2.23E-03
    65 OT DIIS     0.80E-01   11.6     0.00001868     -6898.2788418259 -1.49E-03
    66 OT DIIS     0.80E-01   11.6     0.00001817     -6898.2805831601 -1.74E-03
    67 OT DIIS     0.80E-01   11.2     0.00001775     -6898.2824459359 -1.86E-03
    68 OT DIIS     0.80E-01   11.6     0.00001727     -6898.2843570207 -1.91E-03
    69 OT DIIS     0.80E-01   11.6     0.00001690     -6898.2861837564 -1.83E-03
    70 OT DIIS     0.80E-01   11.4     0.00001658     -6898.2874646575 -1.28E-03
    71 OT DIIS     0.80E-01   11.9     0.00001614     -6898.2895596840 -2.10E-03
    72 OT DIIS     0.80E-01   11.6     0.00001584     -6898.2908978177 -1.34E-03
    73 OT DIIS     0.80E-01   11.8     0.00001555     -6898.2923200143 -1.42E-03
    74 OT DIIS     0.80E-01   11.6     0.00001516     -6898.2940334420 -1.71E-03
    75 OT DIIS     0.80E-01   11.8     0.00001471     -6898.2963686985 -2.34E-03
    76 OT DIIS     0.80E-01   11.4     0.00001447     -6898.2980307650 -1.66E-03
    77 OT DIIS     0.80E-01   11.5     0.00001422     -6898.2984403211 -4.10E-04
    78 OT DIIS     0.80E-01   11.9     0.00001377     -6898.3011271752 -2.69E-03
    79 OT DIIS     0.80E-01   11.7     0.00001323     -6898.3027627931 -1.64E-03
    80 OT DIIS     0.80E-01   11.4     0.00001293     -6898.3039455210 -1.18E-03
    81 OT DIIS     0.80E-01   11.8     0.00001263     -6898.3057297397 -1.78E-03
    82 OT DIIS     0.80E-01   11.7     0.00001222     -6898.3072927884 -1.56E-03
    83 OT DIIS     0.80E-01   12.1     0.00001191     -6898.3081036095 -8.11E-04
    84 OT DIIS     0.80E-01   11.9     0.00001177     -6898.3084419849 -3.38E-04
    85 OT DIIS     0.80E-01   11.9     0.00001148     -6898.3094119351 -9.70E-04
    86 OT DIIS     0.80E-01   11.7     0.00001120     -6898.3103593708 -9.47E-04
    87 OT DIIS     0.80E-01   12.0     0.00001099     -6898.3112994922 -9.40E-04
    88 OT DIIS     0.80E-01   11.9     0.00001086     -6898.3119746243 -6.75E-04
    89 OT DIIS     0.80E-01   11.8     0.00001073     -6898.3128349688 -8.60E-04
    90 OT DIIS     0.80E-01   11.5     0.00001056     -6898.3136322605 -7.97E-04
    91 OT DIIS     0.80E-01   11.4     0.00001040     -6898.3148588607 -1.23E-03
    92 OT DIIS     0.80E-01   11.8     0.00001022     -6898.3161513055 -1.29E-03
    93 OT DIIS     0.80E-01   11.8     0.00001005     -6898.3165934143 -4.42E-04
    94 OT DIIS     0.80E-01   11.9     0.00000980     -6898.3181667020 -1.57E-03
    95 OT DIIS     0.80E-01   11.4     0.00000936     -6898.3196371051 -1.47E-03
    96 OT DIIS     0.80E-01   11.8     0.00000922     -6898.3205722330 -9.35E-04
    97 OT DIIS     0.80E-01   12.1     0.00000894     -6898.3215648859 -9.93E-04
    98 OT DIIS     0.80E-01   12.0     0.00000871     -6898.3222299759 -6.65E-04
    99 OT DIIS     0.80E-01   12.0     0.00000860     -6898.3225539096 -3.24E-04
   100 OT DIIS     0.80E-01   12.4     0.00000855     -6898.3232377123 -6.84E-04

  Leaving inner SCF loop after reaching   100 steps.


  Electronic density on regular grids:      -2431.9999999997        0.0000000003
  Core density on regular grids:             2431.9999999988       -0.0000000012
  Total charge density on r-space grids:       -0.0000000009
  Total charge density g-space grids:          -0.0000000009

  Overlap energy of the core charge distribution:               0.01844558409371
  Self energy of the core charge distribution:             -16017.19408509233290
  Core Hamiltonian energy:                                   4298.53605169666207
  Hartree energy:                                            6143.20686253150780
  Exchange-correlation energy:                              -1321.28025009964153
  Dispersion energy:                                           -1.61026233255188

  Total energy:                                             -6898.32323771226129

  outer SCF iter =    1 RMS gradient =   0.86E-05 energy =      -6898.3232377123

  ----------------------------------- OT ---------------------------------------
  Minimizer      : DIIS                : direct inversion
                                         in the iterative subspace
                                         using   7 DIIS vectors
                                         safer DIIS on
  Preconditioner : FULL_SINGLE_INVERSE : inversion of 
                                         H + eS - 2*(Sc)(c^T*H*c+const)(Sc)^T
  Precond_solver : DEFAULT
  stepsize       :    0.08000000                  energy_gap     :    0.08000000
  eps_taylor     :   0.10000E-15                  max_taylor     :             4
  ----------------------------------- OT ---------------------------------------

  Step     Update method      Time    Convergence         Total energy    Change
  ------------------------------------------------------------------------------
     1 OT DIIS     0.80E-01   36.1     0.00008731     -6898.3237928675 -5.55E-04
     2 OT DIIS     0.80E-01   11.2     0.00010695     -6898.3259299136 -2.14E-03
     3 OT DIIS     0.80E-01   11.4     0.00010477     -6898.3266638773 -7.34E-04
     4 OT DIIS     0.80E-01   11.4     0.00008384     -6898.3276187813 -9.55E-04
     5 OT DIIS     0.80E-01   11.1     0.00006289     -6898.3289895908 -1.37E-03
     6 OT DIIS     0.80E-01   11.1     0.00005934     -6898.3296746151 -6.85E-04
     7 OT DIIS     0.80E-01   11.6     0.00004931     -6898.3305921067 -9.17E-04
     8 OT DIIS     0.80E-01   11.4     0.00004697     -6898.3314191849 -8.27E-04
     9 OT DIIS     0.80E-01   11.5     0.00004019     -6898.3320836118 -6.64E-04
    10 OT DIIS     0.80E-01   11.6     0.00004155     -6898.3329447625 -8.61E-04
    11 OT DIIS     0.80E-01   11.6     0.00003788     -6898.3338842325 -9.39E-04
    12 OT DIIS     0.80E-01   12.0     0.00003853     -6898.3348147385 -9.31E-04
    13 OT DIIS     0.80E-01   12.4     0.00003812     -6898.3358324615 -1.02E-03
    14 OT DIIS     0.80E-01   11.9     0.00003660     -6898.3368746136 -1.04E-03
    15 OT DIIS     0.80E-01   11.8     0.00003793     -6898.3376463326 -7.72E-04
    16 OT DIIS     0.80E-01   11.7     0.00003645     -6898.3384497190 -8.03E-04
    17 OT DIIS     0.80E-01   11.5     0.00003506     -6898.3393489829 -8.99E-04
    18 OT DIIS     0.80E-01   11.8     0.00003234     -6898.3402201358 -8.71E-04
    19 OT DIIS     0.80E-01   11.5     0.00003481     -6898.3406804048 -4.60E-04
    20 OT DIIS     0.80E-01   11.7     0.00003367     -6898.3414399462 -7.60E-04
    21 OT DIIS     0.80E-01   12.2     0.00003378     -6898.3419064259 -4.66E-04
    22 OT DIIS     0.80E-01   12.0     0.00003384     -6898.3420065911 -1.00E-04
    23 OT DIIS     0.80E-01   12.2     0.00003354     -6898.3424355663 -4.29E-04
    24 OT DIIS     0.80E-01   11.8     0.00003237     -6898.3426492816 -2.14E-04
    25 OT SD       0.80E-01   11.6     0.00002985     -6898.3428145320 -1.65E-04
    26 OT DIIS     0.80E-01   11.9     0.00010363     -6898.3426592347  1.55E-04
    27 OT DIIS     0.80E-01   11.8     0.00002682     -6898.3432607235 -6.01E-04
    28 OT DIIS     0.80E-01   11.8     0.00002564     -6898.3433444207 -8.37E-05
    29 OT DIIS     0.80E-01   12.0     0.00002515     -6898.3434658436 -1.21E-04
    30 OT DIIS     0.80E-01   12.0     0.00002412     -6898.3435691057 -1.03E-04
    31 OT DIIS     0.80E-01   12.1     0.00002543     -6898.3437804960 -2.11E-04
    32 OT SD       0.80E-01   12.1     0.00002423     -6898.3458013729 -2.02E-03
    33 OT DIIS     0.80E-01   12.6     0.00006630     -6898.3457952498  6.12E-06
    34 OT DIIS     0.80E-01   12.2     0.00002278     -6898.3460148024 -2.20E-04
    35 OT DIIS     0.80E-01   12.2     0.00002010     -6898.3468455071 -8.31E-04
    36 OT DIIS     0.80E-01   11.7     0.00002004     -6898.3473088732 -4.63E-04
    37 OT DIIS     0.80E-01   11.7     0.00002018     -6898.3478051194 -4.96E-04
    38 OT DIIS     0.80E-01   11.6     0.00002113     -6898.3489141151 -1.11E-03
    39 OT SD       0.80E-01   11.5     0.00002006     -6898.3489511555 -3.70E-05
    40 OT DIIS     0.80E-01   11.9     0.00005705     -6898.3489361241  1.50E-05
    41 OT DIIS     0.80E-01   12.0     0.00002114     -6898.3495023522 -5.66E-04
    42 OT DIIS     0.80E-01   12.3     0.00002037     -6898.3501020949 -6.00E-04
    43 OT DIIS     0.80E-01   12.0     0.00001622     -6898.3502622542 -1.60E-04
    44 OT DIIS     0.80E-01   12.1     0.00001968     -6898.3504938810 -2.32E-04
    45 OT DIIS     0.80E-01   11.7     0.00001447     -6898.3508489095 -3.55E-04
    46 OT SD       0.80E-01   11.6     0.00001705     -6898.3509844064 -1.35E-04
    47 OT DIIS     0.80E-01   11.5     0.00005782     -6898.3509273327  5.71E-05
    48 OT DIIS     0.80E-01   11.8     0.00001349     -6898.3512650026 -3.38E-04
    49 OT DIIS     0.80E-01   12.1     0.00001409     -6898.3513611000 -9.61E-05
    50 OT DIIS     0.80E-01   11.8     0.00001452     -6898.3517151036 -3.54E-04
    51 OT DIIS     0.80E-01   11.7     0.00001576     -6898.3518099362 -9.48E-05
    52 OT SD       0.80E-01   12.3     0.00001494     -6898.3519916218 -1.82E-04
    53 OT DIIS     0.80E-01   12.0     0.00005587     -6898.3519360335  5.56E-05
    54 OT DIIS     0.80E-01   11.9     0.00001175     -6898.3523276219 -3.92E-04
    55 OT DIIS     0.80E-01   11.5     0.00001191     -6898.3525407406 -2.13E-04
    56 OT DIIS     0.80E-01   11.9     0.00001176     -6898.3525657807 -2.50E-05
    57 OT SD       0.80E-01   12.3     0.00001190     -6898.3527331684 -1.67E-04
    58 OT DIIS     0.80E-01   11.9     0.00003573     -6898.3527319662  1.20E-06
    59 OT SD       0.80E-01   11.7     0.00001063     -6898.3530500410 -3.18E-04
    60 OT DIIS     0.80E-01   11.9     0.00002525     -6898.3530701538 -2.01E-05
    61 OT DIIS     0.80E-01   11.7     0.00001047     -6898.3532424649 -1.72E-04
    62 OT SD       0.80E-01   11.9     0.00001021     -6898.3533812147 -1.39E-04
    63 OT DIIS     0.80E-01   11.6     0.00002562     -6898.3533965466 -1.53E-05
    64 OT DIIS     0.80E-01   11.4     0.00001014     -6898.3536211561 -2.25E-04
    65 OT DIIS     0.80E-01   11.3     0.00000946     -6898.3538005011 -1.79E-04
    66 OT SD       0.80E-01   12.0     0.00000915     -6898.3538340765 -3.36E-05
    67 OT DIIS     0.80E-01   11.9     0.00001688     -6898.3538588105 -2.47E-05
    68 OT DIIS     0.80E-01   12.3     0.00000900     -6898.3539815030 -1.23E-04
    69 OT DIIS     0.80E-01   12.2     0.00000916     -6898.3540449469 -6.34E-05
    70 OT DIIS     0.80E-01   11.6     0.00000859     -6898.3540692323 -2.43E-05
    71 OT DIIS     0.80E-01   11.7     0.00000859     -6898.3542906458 -2.21E-04
    72 OT DIIS     0.80E-01   11.8     0.00000858     -6898.3544812520 -1.91E-04
    73 OT SD       0.80E-01   12.1     0.00000807     -6898.3545479209 -6.67E-05
    74 OT DIIS     0.80E-01   12.1     0.00001153     -6898.3545716716 -2.38E-05
    75 OT DIIS     0.80E-01   12.0     0.00000852     -6898.3545935340 -2.19E-05
    76 OT DIIS     0.80E-01   11.8     0.00000762     -6898.3546868884 -9.34E-05
    77 OT DIIS     0.80E-01   12.1     0.00000771     -6898.3547347967 -4.79E-05
    78 OT DIIS     0.80E-01   12.2     0.00000776     -6898.3548106773 -7.59E-05
    79 OT DIIS     0.80E-01   11.9     0.00000741     -6898.3550046616 -1.94E-04
    80 OT SD       0.80E-01   12.2     0.00000846     -6898.3551850974 -1.80E-04
    81 OT SD       0.80E-01   11.7     0.00001609     -6898.3551982556 -1.32E-05
    82 OT DIIS     0.80E-01   11.9     0.00006898     -6898.3550355745  1.63E-04
    83 OT DIIS     0.80E-01   11.9     0.00000706     -6898.3553215321 -2.86E-04
    84 OT DIIS     0.80E-01   12.3     0.00000753     -6898.3553736966 -5.22E-05
    85 OT DIIS     0.80E-01   11.6     0.00000712     -6898.3554444707 -7.08E-05
    86 OT DIIS     0.80E-01   11.8     0.00000663     -6898.3555407759 -9.63E-05
    87 OT SD       0.80E-01   11.6     0.00000776     -6898.3556476024 -1.07E-04
    88 OT DIIS     0.80E-01   12.1     0.00002121     -6898.3556501273 -2.52E-06
    89 OT DIIS     0.80E-01   12.0     0.00000746     -6898.3556359158  1.42E-05
    90 OT DIIS     0.80E-01   12.1     0.00000679     -6898.3557485776 -1.13E-04
    91 OT DIIS     0.80E-01   12.3     0.00000735     -6898.3558354013 -8.68E-05
    92 OT DIIS     0.80E-01   11.9     0.00000808     -6898.3558311721  4.23E-06
    93 OT DIIS     0.80E-01   12.3     0.00000777     -6898.3558310519  1.20E-07
    94 OT SD       0.80E-01   11.8     0.00000813     -6898.3559894850 -1.58E-04
    95 OT DIIS     0.80E-01   11.8     0.00003120     -6898.3559678173  2.17E-05
    96 OT DIIS     0.80E-01   11.7     0.00000591     -6898.3560220820 -5.43E-05
    97 OT SD       0.80E-01   12.5     0.00000695     -6898.3561486910 -1.27E-04
    98 OT SD       0.80E-01   11.4     0.00001984     -6898.3561455820  3.11E-06
    99 OT DIIS     0.80E-01   11.8     0.00009758     -6898.3558011433  3.44E-04
   100 OT DIIS     0.80E-01   12.3     0.00000659     -6898.3563064986 -5.05E-04

  Leaving inner SCF loop after reaching   100 steps.


  Electronic density on regular grids:      -2431.9999999997        0.0000000003
  Core density on regular grids:             2431.9999999988       -0.0000000012
  Total charge density on r-space grids:       -0.0000000009
  Total charge density g-space grids:          -0.0000000009

  Overlap energy of the core charge distribution:               0.01844558409371
  Self energy of the core charge distribution:             -16017.19408509233290
  Core Hamiltonian energy:                                   4298.37765035170014
  Hartree energy:                                            6143.29640054465381
  Exchange-correlation energy:                              -1321.24445555412581
  Dispersion energy:                                           -1.61026233255188

  Total energy:                                             -6898.35630649856284

  outer SCF iter =    2 RMS gradient =   0.66E-05 energy =      -6898.3563064986

  ----------------------------------- OT ---------------------------------------
  Minimizer      : DIIS                : direct inversion
                                         in the iterative subspace
                                         using   7 DIIS vectors
                                         safer DIIS on
  Preconditioner : FULL_SINGLE_INVERSE : inversion of 
                                         H + eS - 2*(Sc)(c^T*H*c+const)(Sc)^T
  Precond_solver : DEFAULT
  stepsize       :    0.08000000                  energy_gap     :    0.08000000
  eps_taylor     :   0.10000E-15                  max_taylor     :             4
  ----------------------------------- OT ---------------------------------------

  Step     Update method      Time    Convergence         Total energy    Change
  ------------------------------------------------------------------------------
     1 OT DIIS     0.80E-01   33.6     0.00000697     -6898.3563449370 -3.84E-05
     2 OT DIIS     0.80E-01   11.2     0.00001499     -6898.3563509365 -6.00E-06
     3 OT DIIS     0.80E-01   11.3     0.00000882     -6898.3563608393 -9.90E-06
     4 OT DIIS     0.80E-01   11.3     0.00000541     -6898.3563670408 -6.20E-06
     5 OT DIIS     0.80E-01   11.8     0.00000536     -6898.3563739051 -6.86E-06
     6 OT DIIS     0.80E-01   11.1     0.00000530     -6898.3563822663 -8.36E-06
     7 OT DIIS     0.80E-01   11.7     0.00000519     -6898.3564151033 -3.28E-05
     8 OT DIIS     0.80E-01   11.5     0.00000561     -6898.3564575975 -4.25E-05
     9 OT DIIS     0.80E-01   11.4     0.00000580     -6898.3564769492 -1.94E-05
    10 OT DIIS     0.80E-01   11.8     0.00000519     -6898.3565422254 -6.53E-05
    11 OT DIIS     0.80E-01   11.2     0.00000540     -6898.3565749115 -3.27E-05
    12 OT DIIS     0.80E-01   11.4     0.00000525     -6898.3565852047 -1.03E-05
    13 OT DIIS     0.80E-01   11.3     0.00000491     -6898.3566049027 -1.97E-05
    14 OT DIIS     0.80E-01   11.0     0.00000490     -6898.3566253327 -2.04E-05
    15 OT DIIS     0.80E-01   11.5     0.00000439     -6898.3566365345 -1.12E-05
    16 OT DIIS     0.80E-01   11.7     0.00000460     -6898.3566406405 -4.11E-06
    17 OT SD       0.80E-01   11.4     0.00000448     -6898.3566616671 -2.10E-05
    18 OT DIIS     0.80E-01   11.9     0.00001403     -6898.3566620244 -3.57E-07
    19 OT DIIS     0.80E-01   10.5     0.00000467     -6898.3566821362 -2.01E-05
    20 OT DIIS     0.80E-01   10.8     0.00000464     -6898.3566821435 -7.37E-09
    21 OT DIIS     0.80E-01   10.6     0.00000421     -6898.3566990216 -1.69E-05
    22 OT SD       0.80E-01   11.1     0.00000432     -6898.3567035838 -4.56E-06
    23 OT DIIS     0.80E-01   11.4     0.00001369     -6898.3567034657  1.18E-07
    24 OT SD       0.80E-01   11.3     0.00000400     -6898.3567893662 -8.59E-05
    25 OT DIIS     0.80E-01   11.4     0.00000951     -6898.3567914335 -2.07E-06
    26 OT DIIS     0.80E-01   11.9     0.00000445     -6898.3568053324 -1.39E-05
    27 OT DIIS     0.80E-01   10.9     0.00000338     -6898.3568623640 -5.70E-05
    28 OT DIIS     0.80E-01   11.5     0.00000394     -6898.3568668094 -4.45E-06
    29 OT SD       0.80E-01   11.8     0.00000349     -6898.3568858211 -1.90E-05
    30 OT DIIS     0.80E-01   11.4     0.00000847     -6898.3568882936 -2.47E-06
    31 OT DIIS     0.80E-01   11.5     0.00000343     -6898.3569193945 -3.11E-05
    32 OT DIIS     0.80E-01   11.8     0.00000333     -6898.3569197373 -3.43E-07
    33 OT DIIS     0.80E-01   11.4     0.00000342     -6898.3569699580 -5.02E-05
    34 OT SD       0.80E-01   11.4     0.00000405     -6898.3569697332  2.25E-07
    35 OT DIIS     0.80E-01   12.3     0.00001644     -6898.3569651713  4.56E-06
    36 OT SD       0.80E-01   12.4     0.00000329     -6898.3570528082 -8.76E-05
    37 OT SD       0.80E-01   12.0     0.00000644     -6898.3570554966 -2.69E-06
    38 OT DIIS     0.80E-01   12.3     0.00002977     -6898.3570276526  2.78E-05
    39 OT DIIS     0.80E-01   11.9     0.00000298     -6898.3570845842 -5.69E-05
    40 OT DIIS     0.80E-01   12.5     0.00000299     -6898.3571042313 -1.96E-05
    41 OT DIIS     0.80E-01   11.9     0.00000303     -6898.3571131524 -8.92E-06
    42 OT DIIS     0.80E-01   11.6     0.00000289     -6898.3571379687 -2.48E-05
    43 OT SD       0.80E-01   12.0     0.00000300     -6898.3571643416 -2.64E-05
    44 OT DIIS     0.80E-01   12.0     0.00000634     -6898.3571668253 -2.48E-06
    45 OT DIIS     0.80E-01   11.5     0.00000286     -6898.3571960875 -2.93E-05
    46 OT DIIS     0.80E-01   11.7     0.00000297     -6898.3572083547 -1.23E-05
    47 OT DIIS     0.80E-01   12.3     0.00000282     -6898.3572257243 -1.74E-05
    48 OT DIIS     0.80E-01   12.0     0.00000296     -6898.3572415585 -1.58E-05
    49 OT DIIS     0.80E-01   12.2     0.00000290     -6898.3572682553 -2.67E-05
    50 OT SD       0.80E-01   11.8     0.00000281     -6898.3572751146 -6.86E-06
    51 OT DIIS     0.80E-01   11.9     0.00000414     -6898.3572781321 -3.02E-06
    52 OT DIIS     0.80E-01   11.9     0.00000298     -6898.3572954130 -1.73E-05
    53 OT DIIS     0.80E-01   11.8     0.00000291     -6898.3573226584 -2.72E-05
    54 OT SD       0.80E-01   11.4     0.00000286     -6898.3573329865 -1.03E-05
    55 OT DIIS     0.80E-01   11.4     0.00000575     -6898.3573352165 -2.23E-06
    56 OT DIIS     0.80E-01   11.6     0.00000334     -6898.3573966860 -6.15E-05
    57 OT SD       0.80E-01   11.8     0.00000313     -6898.3573965804  1.06E-07
    58 OT SD       0.80E-01   12.1     0.00000749     -6898.3573976915 -1.11E-06
    59 OT DIIS     0.80E-01   11.6     0.00003388     -6898.3573563480  4.13E-05
    60 OT DIIS     0.80E-01   11.9     0.00000267     -6898.3574292919 -7.29E-05
    61 OT SD       0.80E-01   12.1     0.00000302     -6898.3574601963 -3.09E-05
    62 OT DIIS     0.80E-01   12.0     0.00000705     -6898.3574616374 -1.44E-06
    63 OT DIIS     0.80E-01   11.7     0.00000274     -6898.3574737218 -1.21E-05
    64 OT SD       0.80E-01   12.2     0.00000328     -6898.3575021169 -2.84E-05
    65 OT DIIS     0.80E-01   11.7     0.00001192     -6898.3575003604  1.76E-06
    66 OT DIIS     0.80E-01   11.7     0.00000374     -6898.3575770483 -7.67E-05
    67 OT SD       0.80E-01   12.2     0.00000414     -6898.3575978893 -2.08E-05
    68 OT SD       0.80E-01   11.9     0.00000863     -6898.3575980215 -1.32E-07
    69 OT DIIS     0.80E-01   11.8     0.00003858     -6898.3575462279  5.18E-05
    70 OT DIIS     0.80E-01   12.2     0.00000258     -6898.3575652360 -1.90E-05
    71 OT DIIS     0.80E-01   12.6     0.00000256     -6898.3575817273 -1.65E-05
    72 OT SD       0.80E-01   12.2     0.00000240     -6898.3575837158 -1.99E-06
    73 OT DIIS     0.80E-01   12.1     0.00000338     -6898.3575861445 -2.43E-06
    74 OT DIIS     0.80E-01   11.8     0.00000246     -6898.3575858764  2.68E-07
    75 OT DIIS     0.80E-01   11.8     0.00000238     -6898.3575912645 -5.39E-06
    76 OT DIIS     0.80E-01   12.0     0.00000247     -6898.3575955323 -4.27E-06
    77 OT DIIS     0.80E-01   12.0     0.00000252     -6898.3576132731 -1.77E-05
    78 OT DIIS     0.80E-01   11.8     0.00000255     -6898.3576269125 -1.36E-05
    79 OT SD       0.80E-01   12.1     0.00000230     -6898.3576434292 -1.65E-05
    80 OT DIIS     0.80E-01   12.1     0.00000376     -6898.3576454068 -1.98E-06
    81 OT DIIS     0.80E-01   12.4     0.00000235     -6898.3576534516 -8.04E-06
    82 OT DIIS     0.80E-01   11.6     0.00000231     -6898.3576690776 -1.56E-05
    83 OT DIIS     0.80E-01   12.2     0.00000234     -6898.3576764182 -7.34E-06
    84 OT DIIS     0.80E-01   12.1     0.00000230     -6898.3576927126 -1.63E-05
    85 OT DIIS     0.80E-01   12.1     0.00000235     -6898.3577118990 -1.92E-05
    86 OT SD       0.80E-01   11.9     0.00000244     -6898.3577172922 -5.39E-06
    87 OT DIIS     0.80E-01   12.6     0.00000718     -6898.3577177336 -4.41E-07
    88 OT DIIS     0.80E-01   12.2     0.00000217     -6898.3577318107 -1.41E-05
    89 OT DIIS     0.80E-01   11.9     0.00000216     -6898.3577419817 -1.02E-05
    90 OT DIIS     0.80E-01   12.4     0.00000212     -6898.3577463102 -4.33E-06
    91 OT SD       0.80E-01   12.3     0.00000217     -6898.3577591115 -1.28E-05
    92 OT DIIS     0.80E-01   12.0     0.00000437     -6898.3577606191 -1.51E-06
    93 OT DIIS     0.80E-01   12.2     0.00000210     -6898.3577798515 -1.92E-05
    94 OT DIIS     0.80E-01   11.7     0.00000211     -6898.3577817521 -1.90E-06
    95 OT DIIS     0.80E-01   11.9     0.00000208     -6898.3577950924 -1.33E-05
    96 OT SD       0.80E-01   11.7     0.00000209     -6898.3578076531 -1.26E-05
    97 OT SD       0.80E-01   11.9     0.00000287     -6898.3578094648 -1.81E-06
    98 OT DIIS     0.80E-01   12.1     0.00001079     -6898.3578073195  2.15E-06
    99 OT DIIS     0.80E-01   11.9     0.00000204     -6898.3578191292 -1.18E-05
   100 OT SD       0.80E-01   12.3     0.00000216     -6898.3578401443 -2.10E-05

  Leaving inner SCF loop after reaching   100 steps.


  Electronic density on regular grids:      -2431.9999999997        0.0000000003
  Core density on regular grids:             2431.9999999988       -0.0000000012
  Total charge density on r-space grids:       -0.0000000008
  Total charge density g-space grids:          -0.0000000008

  Overlap energy of the core charge distribution:               0.01844558409371
  Self energy of the core charge distribution:             -16017.19408509233290
  Core Hamiltonian energy:                                   4298.36993366231854
  Hartree energy:                                            6143.30259152071085
  Exchange-correlation energy:                              -1321.24446348657489
  Dispersion energy:                                           -1.61026233255188

  Total energy:                                             -6898.35784014433557

  outer SCF iter =    3 RMS gradient =   0.22E-05 energy =      -6898.3578401443

  ----------------------------------- OT ---------------------------------------
  Minimizer      : DIIS                : direct inversion
                                         in the iterative subspace
                                         using   7 DIIS vectors
                                         safer DIIS on
  Preconditioner : FULL_SINGLE_INVERSE : inversion of 
                                         H + eS - 2*(Sc)(c^T*H*c+const)(Sc)^T
  Precond_solver : DEFAULT
  stepsize       :    0.08000000                  energy_gap     :    0.08000000
  eps_taylor     :   0.10000E-15                  max_taylor     :             4
  ----------------------------------- OT ---------------------------------------

  Step     Update method      Time    Convergence         Total energy    Change
  ------------------------------------------------------------------------------
     1 OT DIIS     0.80E-01   33.5     0.00000408     -6898.3578416320 -1.49E-06
     2 OT DIIS     0.80E-01   11.4     0.00002068     -6898.3578292866  1.23E-05
     3 OT DIIS     0.80E-01   11.1     0.00000253     -6898.3578442220 -1.49E-05
     4 OT DIIS     0.80E-01   11.3     0.00000215     -6898.3578448833 -6.61E-07
     5 OT DIIS     0.80E-01   11.2     0.00000201     -6898.3578453774 -4.94E-07
     6 OT DIIS     0.80E-01   11.2     0.00000201     -6898.3578467875 -1.41E-06
     7 OT DIIS     0.80E-01   11.8     0.00000204     -6898.3578504132 -3.63E-06
     8 OT SD       0.80E-01   11.9     0.00000204     -6898.3578622265 -1.18E-05
     9 OT DIIS     0.80E-01   11.2     0.00000302     -6898.3578639359 -1.71E-06
    10 OT DIIS     0.80E-01   10.9     0.00000205     -6898.3578741014 -1.02E-05
    11 OT DIIS     0.80E-01   11.5     0.00000202     -6898.3578784642 -4.36E-06
    12 OT DIIS     0.80E-01   11.3     0.00000200     -6898.3578817489 -3.28E-06
    13 OT DIIS     0.80E-01   11.6     0.00000199     -6898.3578861601 -4.41E-06
    14 OT DIIS     0.80E-01   11.9     0.00000198     -6898.3578952939 -9.13E-06
    15 OT SD       0.80E-01   11.7     0.00000197     -6898.3579035873 -8.29E-06
    16 OT DIIS     0.80E-01   11.7     0.00000213     -6898.3579054084 -1.82E-06
    17 OT DIIS     0.80E-01   11.7     0.00000197     -6898.3579136779 -8.27E-06
    18 OT DIIS     0.80E-01   12.1     0.00000198     -6898.3579239395 -1.03E-05
    19 OT DIIS     0.80E-01   12.0     0.00000199     -6898.3579322071 -8.27E-06
    20 OT DIIS     0.80E-01   11.8     0.00000198     -6898.3579442852 -1.21E-05
    21 OT DIIS     0.80E-01   11.8     0.00000198     -6898.3579485095 -4.22E-06
    22 OT DIIS     0.80E-01   11.9     0.00000203     -6898.3579489217 -4.12E-07
    23 OT DIIS     0.80E-01   11.6     0.00000195     -6898.3579581722 -9.25E-06
    24 OT DIIS     0.80E-01   11.5     0.00000201     -6898.3579661120 -7.94E-06
    25 OT DIIS     0.80E-01   11.7     0.00000206     -6898.3579838198 -1.77E-05
    26 OT DIIS     0.80E-01   11.6     0.00000198     -6898.3579847730 -9.53E-07
    27 OT SD       0.80E-01   11.8     0.00000221     -6898.3580101336 -2.54E-05
    28 OT SD       0.80E-01   12.0     0.00000436     -6898.3580113352 -1.20E-06
    29 OT DIIS     0.80E-01   11.6     0.00002125     -6898.3579975638  1.38E-05
    30 OT DIIS     0.80E-01   11.9     0.00000204     -6898.3580313515 -3.38E-05
    31 OT DIIS     0.80E-01   11.8     0.00000288     -6898.3580644263 -3.31E-05
    32 OT SD       0.80E-01   11.9     0.00000296     -6898.3580842712 -1.98E-05
    33 OT DIIS     0.80E-01   11.7     0.00000726     -6898.3580840082  2.63E-07
    34 OT SD       0.80E-01   12.0     0.00000218     -6898.3580871961 -3.19E-06
    35 OT DIIS     0.80E-01   12.4     0.00000560     -6898.3580878487 -6.53E-07
    36 OT DIIS     0.80E-01   12.0     0.00000202     -6898.3580950453 -7.20E-06
    37 OT SD       0.80E-01   12.0     0.00000203     -6898.3581034378 -8.39E-06
    38 OT DIIS     0.80E-01   12.0     0.00000424     -6898.3581045872 -1.15E-06
    39 OT SD       0.80E-01   12.0     0.00000209     -6898.3581273685 -2.28E-05
    40 OT DIIS     0.80E-01   11.7     0.00000472     -6898.3581282705 -9.02E-07
    41 OT DIIS     0.80E-01   11.9     0.00000207     -6898.3581273867  8.84E-07
    42 OT DIIS     0.80E-01   12.0     0.00000203     -6898.3581519544 -2.46E-05
    43 OT DIIS     0.80E-01   11.7     0.00000700     -6898.3582240725 -7.21E-05
    44 OT SD       0.80E-01   11.9     0.00000708     -6898.3582261053 -2.03E-06
    45 OT SD       0.80E-01   11.9     0.00001189     -6898.3582212717  4.83E-06
    46 OT DIIS     0.80E-01   12.4     0.00002962     -6898.3581815237  3.97E-05
    47 OT DIIS     0.80E-01   11.9     0.00000221     -6898.3581753340  6.19E-06
    48 OT DIIS     0.80E-01   11.8     0.00000225     -6898.3581786031 -3.27E-06
    49 OT SD       0.80E-01   11.9     0.00000243     -6898.3581968756 -1.83E-05
    50 OT DIIS     0.80E-01   11.9     0.00000974     -6898.3581952941  1.58E-06
    51 OT SD       0.80E-01   12.1     0.00000184     -6898.3581932294  2.06E-06
    52 OT DIIS     0.80E-01   12.4     0.00000290     -6898.3581945677 -1.34E-06
    53 OT DIIS     0.80E-01   12.0     0.00000181     -6898.3581978114 -3.24E-06
    54 OT DIIS     0.80E-01   11.9     0.00000178     -6898.3581984900 -6.79E-07
    55 OT DIIS     0.80E-01   12.1     0.00000179     -6898.3582006739 -2.18E-06
    56 OT DIIS     0.80E-01   11.7     0.00000178     -6898.3582048129 -4.14E-06
    57 OT DIIS     0.80E-01   12.0     0.00000183     -6898.3582170231 -1.22E-05
    58 OT DIIS     0.80E-01   11.7     0.00000322     -6898.3582644534 -4.74E-05
    59 OT SD       0.80E-01   12.0     0.00000424     -6898.3582859674 -2.15E-05
    60 OT SD       0.80E-01   12.0     0.00000698     -6898.3582853871  5.80E-07
    61 OT DIIS     0.80E-01   12.2     0.00002118     -6898.3582685639  1.68E-05
    62 OT DIIS     0.80E-01   12.3     0.00000211     -6898.3582411479  2.74E-05
    63 OT DIIS     0.80E-01   11.9     0.00000206     -6898.3582746515 -3.35E-05
    64 OT SD       0.80E-01   11.6     0.00000186     -6898.3582860711 -1.14E-05
    65 OT SD       0.80E-01   12.1     0.00000407     -6898.3582869151 -8.44E-07
    66 OT DIIS     0.80E-01   12.4     0.00002123     -6898.3582730239  1.39E-05
    67 OT DIIS     0.80E-01   12.1     0.00000167     -6898.3582862487 -1.32E-05
    68 OT DIIS     0.80E-01   11.9     0.00000170     -6898.3582937326 -7.48E-06
    69 OT SD       0.80E-01   12.4     0.00000174     -6898.3583002408 -6.51E-06
    70 OT DIIS     0.80E-01   11.9     0.00000316     -6898.3583012974 -1.06E-06
    71 OT SD       0.80E-01   12.0     0.00000201     -6898.3583304121 -2.91E-05
    72 OT SD       0.80E-01   12.1     0.00000473     -6898.3583309315 -5.19E-07
    73 OT DIIS     0.80E-01   11.8     0.00002408     -6898.3583119048  1.90E-05
    74 OT DIIS     0.80E-01   12.1     0.00000377     -6898.3583824054 -7.05E-05
    75 OT DIIS     0.80E-01   12.0     0.00000569     -6898.3584004286 -1.80E-05
    76 OT SD       0.80E-01   11.6     0.00000406     -6898.3584004049  2.36E-08
    77 OT SD       0.80E-01   12.4     0.00001156     -6898.3583966081  3.80E-06
    78 OT DIIS     0.80E-01   12.0     0.00005950     -6898.3582733573  1.23E-04
    79 OT DIIS     0.80E-01   11.9     0.00000240     -6898.3583669222 -9.36E-05
    80 OT SD       0.80E-01   11.6     0.00000199     -6898.3584008855 -3.40E-05
    81 OT DIIS     0.80E-01   12.1     0.00000682     -6898.3584003724  5.13E-07
    82 OT DIIS     0.80E-01   11.9     0.00000170     -6898.3583999771  3.95E-07
    83 OT DIIS     0.80E-01   12.5     0.00000152     -6898.3584019287 -1.95E-06
    84 OT DIIS     0.80E-01   12.2     0.00000151     -6898.3584042726 -2.34E-06
    85 OT DIIS     0.80E-01   12.0     0.00000154     -6898.3584042855 -1.29E-08
    86 OT DIIS     0.80E-01   11.6     0.00000153     -6898.3584052812 -9.96E-07
    87 OT SD       0.80E-01   12.2     0.00000155     -6898.3584093534 -4.07E-06
    88 OT DIIS     0.80E-01   12.1     0.00000269     -6898.3584102304 -8.77E-07
    89 OT DIIS     0.80E-01   12.0     0.00000153     -6898.3584154842 -5.25E-06
    90 OT DIIS     0.80E-01   12.2     0.00000152     -6898.3584219034 -6.42E-06
    91 OT SD       0.80E-01   12.1     0.00000151     -6898.3584220399 -1.37E-07
    92 OT DIIS     0.80E-01   11.8     0.00000246     -6898.3584229302 -8.90E-07
    93 OT DIIS     0.80E-01   11.7     0.00000164     -6898.3584377091 -1.48E-05
    94 OT SD       0.80E-01   11.8     0.00000179     -6898.3584527574 -1.50E-05
    95 OT SD       0.80E-01   11.5     0.00000268     -6898.3584535283 -7.71E-07
    96 OT DIIS     0.80E-01   11.9     0.00000949     -6898.3584511065  2.42E-06
    97 OT DIIS     0.80E-01   11.9     0.00000156     -6898.3584635628 -1.25E-05
    98 OT SD       0.80E-01   11.8     0.00000391     -6898.3584979091 -3.43E-05
    99 OT SD       0.80E-01   11.9     0.00000725     -6898.3584969049  1.00E-06
   100 OT DIIS     0.80E-01   11.7     0.00002978     -6898.3584656891  3.12E-05

  Leaving inner SCF loop after reaching   100 steps.


  Electronic density on regular grids:      -2431.9999999997        0.0000000003
  Core density on regular grids:             2431.9999999988       -0.0000000012
  Total charge density on r-space grids:       -0.0000000008
  Total charge density g-space grids:          -0.0000000008

  Overlap energy of the core charge distribution:               0.01844558409371
  Self energy of the core charge distribution:             -16017.19408509233290
  Core Hamiltonian energy:                                   4298.36618989792078
  Hartree energy:                                            6143.30560865695224
  Exchange-correlation energy:                              -1321.24436240313526
  Dispersion energy:                                           -1.61026233255188

  Total energy:                                             -6898.35846568905254

  outer SCF iter =    4 RMS gradient =   0.30E-04 energy =      -6898.3584656891

  ----------------------------------- OT ---------------------------------------
  Minimizer      : DIIS                : direct inversion
                                         in the iterative subspace
                                         using   7 DIIS vectors
                                         safer DIIS on
  Preconditioner : FULL_SINGLE_INVERSE : inversion of 
                                         H + eS - 2*(Sc)(c^T*H*c+const)(Sc)^T
  Precond_solver : DEFAULT
  stepsize       :    0.08000000                  energy_gap     :    0.08000000
  eps_taylor     :   0.10000E-15                  max_taylor     :             4
  ----------------------------------- OT ---------------------------------------

  Step     Update method      Time    Convergence         Total energy    Change
  ------------------------------------------------------------------------------
     1 OT DIIS     0.80E-01   32.0     0.00000168     -6898.3584975483 -3.19E-05
     2 OT DIIS     0.80E-01   11.7     0.00000557     -6898.3584973998  1.48E-07
     3 OT DIIS     0.80E-01   11.2     0.00000148     -6898.3584985695 -1.17E-06
     4 OT DIIS     0.80E-01   11.3     0.00000139     -6898.3584988684 -2.99E-07
     5 OT DIIS     0.80E-01   10.9     0.00000134     -6898.3584992169 -3.48E-07
     6 OT DIIS     0.80E-01   11.1     0.00000135     -6898.3585001351 -9.18E-07
     7 OT DIIS     0.80E-01   11.3     0.00000134     -6898.3585016261 -1.49E-06
     8 OT DIIS     0.80E-01   11.6     0.00000131     -6898.3585028504 -1.22E-06
     9 OT DIIS     0.80E-01   11.6     0.00000134     -6898.3585036166 -7.66E-07
    10 OT DIIS     0.80E-01   11.3     0.00000131     -6898.3585052838 -1.67E-06
    11 OT DIIS     0.80E-01   11.5     0.00000131     -6898.3585065384 -1.25E-06
    12 OT DIIS     0.80E-01   11.2     0.00000132     -6898.3585084054 -1.87E-06
    13 OT DIIS     0.80E-01   11.0     0.00000132     -6898.3585120322 -3.63E-06
    14 OT DIIS     0.80E-01   11.3     0.00000132     -6898.3585153163 -3.28E-06
    15 OT DIIS     0.80E-01   11.7     0.00000134     -6898.3585177532 -2.44E-06
    16 OT DIIS     0.80E-01   11.3     0.00000133     -6898.3585221064 -4.35E-06
    17 OT SD       0.80E-01   11.3     0.00000131     -6898.3585310685 -8.96E-06
    18 OT DIIS     0.80E-01   10.9     0.00000165     -6898.3585317933 -7.25E-07
    19 OT DIIS     0.80E-01   11.3     0.00000135     -6898.3585326795 -8.86E-07
    20 OT DIIS     0.80E-01   11.1     0.00000148     -6898.3585427986 -1.01E-05
    21 OT DIIS     0.80E-01   11.4     0.00000158     -6898.3585521912 -9.39E-06
    22 OT SD       0.80E-01   11.0     0.00000174     -6898.3585619036 -9.71E-06
    23 OT DIIS     0.80E-01   11.8     0.00000380     -6898.3585621526 -2.49E-07
    24 OT SD       0.80E-01   11.3     0.00000154     -6898.3585634491 -1.30E-06
    25 OT DIIS     0.80E-01   11.3     0.00000489     -6898.3585632837  1.65E-07
    26 OT DIIS     0.80E-01   11.2     0.00000134     -6898.3585649516 -1.67E-06
    27 OT SD       0.80E-01   11.2     0.00000125     -6898.3585693451 -4.39E-06
    28 OT DIIS     0.80E-01   11.0     0.00000220     -6898.3585698888 -5.44E-07
    29 OT DIIS     0.80E-01   11.4     0.00000143     -6898.3585803015 -1.04E-05
    30 OT SD       0.80E-01   10.9     0.00000139     -6898.3585816310 -1.33E-06
    31 OT DIIS     0.80E-01   11.3     0.00000481     -6898.3585815304  1.01E-07
    32 OT DIIS     0.80E-01   11.6     0.00000134     -6898.3585934901 -1.20E-05
    33 OT SD       0.80E-01   11.0     0.00000489     -6898.3586292448 -3.58E-05
    34 OT SD       0.80E-01   11.0     0.00000778     -6898.3586273998  1.85E-06
    35 OT DIIS     0.80E-01   11.2     0.00001973     -6898.3586101664  1.72E-05
    36 OT DIIS     0.80E-01   11.3     0.00000138     -6898.3585984932  1.17E-05
    37 OT SD       0.80E-01   11.6     0.00000139     -6898.3586202000 -2.17E-05
    38 OT DIIS     0.80E-01   11.4     0.00000524     -6898.3586198780  3.22E-07
    39 OT SD       0.80E-01   11.2     0.00000121     -6898.3586266307 -6.75E-06
    40 OT SD       0.80E-01   11.2     0.00000194     -6898.3586270576 -4.27E-07
    41 OT DIIS     0.80E-01   11.5     0.00000784     -6898.3586254111  1.65E-06
    42 OT DIIS     0.80E-01   11.3     0.00000128     -6898.3586389703 -1.36E-05
    43 OT DIIS     0.80E-01   11.0     0.00000383     -6898.3586637025 -2.47E-05
    44 OT SD       0.80E-01   11.6     0.00000348     -6898.3586677442 -4.04E-06
    45 OT SD       0.80E-01   11.1     0.00000651     -6898.3586665364  1.21E-06
    46 OT DIIS     0.80E-01   11.2     0.00002462     -6898.3586440462  2.25E-05
    47 OT DIIS     0.80E-01   11.1     0.00000141     -6898.3586483432 -4.30E-06
    48 OT DIIS     0.80E-01   11.3     0.00000113     -6898.3586530536 -4.71E-06
    49 OT SD       0.80E-01   11.4     0.00000116     -6898.3586598647 -6.81E-06
    50 OT DIIS     0.80E-01   10.9     0.00000340     -6898.3586599362 -7.15E-08
    51 OT DIIS     0.80E-01   11.6     0.00000101     -6898.3586597902  1.46E-07
    52 OT DIIS     0.80E-01   11.2     0.00000102     -6898.3586610913 -1.30E-06
    53 OT DIIS     0.80E-01   11.5     0.00000097     -6898.3586623298 -1.24E-06

  *** SCF run converged in    53 steps ***


  Electronic density on regular grids:      -2431.9999999996        0.0000000004
  Core density on regular grids:             2431.9999999988       -0.0000000012
  Total charge density on r-space grids:       -0.0000000007
  Total charge density g-space grids:          -0.0000000007

  Overlap energy of the core charge distribution:               0.01844558409371
  Self energy of the core charge distribution:             -16017.19408509233290
  Core Hamiltonian energy:                                   4298.36607090908910
  Hartree energy:                                            6143.30565258204660
  Exchange-correlation energy:                              -1321.24448398014260
  Dispersion energy:                                           -1.61026233255188

  Total energy:                                             -6898.35866232979788

  outer SCF iter =    5 RMS gradient =   0.97E-06 energy =      -6898.3586623298
  outer SCF loop converged in   5 iterations or  453 steps


 ENERGY| Total FORCE_EVAL ( QS ) energy [hartree]          -6898.358663260337380

 Number of electrons:                                                       2432
 Number of occupied orbitals:                                               1216
 Number of molecular orbitals:                                              1216

 Number of orbital functions:                                               4983
 Number of independent orbital functions:                                   4983

 Extrapolation method: ASPC


 SCF WAVEFUNCTION OPTIMIZATION

  ----------------------------------- OT ---------------------------------------
  Minimizer      : DIIS                : direct inversion
                                         in the iterative subspace
                                         using   7 DIIS vectors
                                         safer DIIS on
  Preconditioner : FULL_SINGLE_INVERSE : inversion of 
                                         H + eS - 2*(Sc)(c^T*H*c+const)(Sc)^T
  Precond_solver : DEFAULT
  stepsize       :    0.08000000                  energy_gap     :    0.08000000
  eps_taylor     :   0.10000E-15                  max_taylor     :             4
  ----------------------------------- OT ---------------------------------------

  Step     Update method      Time    Convergence         Total energy    Change
  ------------------------------------------------------------------------------
     1 OT DIIS     0.80E-01   18.2     0.00424595     -6898.6444337829 -6.90E+03
     2 OT DIIS     0.80E-01   12.3     0.00294411     -6905.1606865664 -6.52E+00
     3 OT DIIS     0.80E-01   12.1     0.00353719     -6906.6119564336 -1.45E+00
     4 OT DIIS     0.80E-01   11.6     0.00155794     -6908.5903333342 -1.98E+00
     5 OT DIIS     0.80E-01   11.9     0.00105353     -6908.8223160236 -2.32E-01
     6 OT DIIS     0.80E-01   11.3     0.00099255     -6908.9731087937 -1.51E-01
     7 OT DIIS     0.80E-01   11.8     0.00074311     -6909.0672117200 -9.41E-02
     8 OT DIIS     0.80E-01   12.1     0.00049581     -6909.1308358284 -6.36E-02
     9 OT DIIS     0.80E-01   12.0     0.00035702     -6909.1761334181 -4.53E-02
    10 OT DIIS     0.80E-01   11.9     0.00034069     -6909.2051899350 -2.91E-02
    11 OT DIIS     0.80E-01   11.8     0.00029225     -6909.2366600918 -3.15E-02
    12 OT DIIS     0.80E-01   11.6     0.00025325     -6909.2568904743 -2.02E-02
    13 OT DIIS     0.80E-01   11.9     0.00022860     -6909.2808546529 -2.40E-02
    14 OT DIIS     0.80E-01   11.4     0.00020418     -6909.3003095444 -1.95E-02
    15 OT DIIS     0.80E-01   11.6     0.00020597     -6909.3219561433 -2.16E-02
    16 OT DIIS     0.80E-01   12.2     0.00019538     -6909.3428884170 -2.09E-02
    17 OT DIIS     0.80E-01   11.6     0.00017124     -6909.3614700866 -1.86E-02
    18 OT DIIS     0.80E-01   11.8     0.00017030     -6909.3758079811 -1.43E-02
    19 OT DIIS     0.80E-01   11.6     0.00015665     -6909.3874262755 -1.16E-02
    20 OT DIIS     0.80E-01   11.7     0.00013733     -6909.3942815150 -6.86E-03
    21 OT DIIS     0.80E-01   12.5     0.00012090     -6909.3991413994 -4.86E-03
    22 OT DIIS     0.80E-01   11.7     0.00009314     -6909.4037686370 -4.63E-03
    23 OT DIIS     0.80E-01   11.7     0.00008150     -6909.4070904079 -3.32E-03
    24 OT DIIS     0.80E-01   11.7     0.00007264     -6909.4099357256 -2.85E-03
    25 OT DIIS     0.80E-01   11.9     0.00006490     -6909.4124865278 -2.55E-03
    26 OT DIIS     0.80E-01   12.0     0.00006553     -6909.4149842121 -2.50E-03
    27 OT DIIS     0.80E-01   11.5     0.00005589     -6909.4167001109 -1.72E-03
    28 OT DIIS     0.80E-01   12.0     0.00005360     -6909.4185475316 -1.85E-03
    29 OT DIIS     0.80E-01   11.6     0.00005189     -6909.4200104071 -1.46E-03
    30 OT DIIS     0.80E-01   11.9     0.00004647     -6909.4213111488 -1.30E-03
    31 OT DIIS     0.80E-01   11.9     0.00004580     -6909.4229399440 -1.63E-03
    32 OT DIIS     0.80E-01   12.1     0.00004299     -6909.4243415672 -1.40E-03
    33 OT DIIS     0.80E-01   11.6     0.00003815     -6909.4256726802 -1.33E-03
    34 OT DIIS     0.80E-01   11.9     0.00003703     -6909.4270524959 -1.38E-03
    35 OT DIIS     0.80E-01   12.3     0.00003647     -6909.4280701272 -1.02E-03
    36 OT DIIS     0.80E-01   11.2     0.00003507     -6909.4293228536 -1.25E-03
    37 OT DIIS     0.80E-01   11.8     0.00003433     -6909.4303062788 -9.83E-04
    38 OT DIIS     0.80E-01   11.7     0.00003135     -6909.4311489421 -8.43E-04
    39 OT DIIS     0.80E-01   11.7     0.00002987     -6909.4319672424 -8.18E-04
    40 OT DIIS     0.80E-01   11.9     0.00002903     -6909.4326735398 -7.06E-04
    41 OT DIIS     0.80E-01   11.4     0.00002721     -6909.4333894209 -7.16E-04
    42 OT DIIS     0.80E-01   12.3     0.00002700     -6909.4343122692 -9.23E-04
    43 OT DIIS     0.80E-01   11.5     0.00002575     -6909.4348554813 -5.43E-04
    44 OT DIIS     0.80E-01   12.0     0.00002509     -6909.4355196584 -6.64E-04
    45 OT DIIS     0.80E-01   12.1     0.00002475     -6909.4360912554 -5.72E-04
    46 OT DIIS     0.80E-01   11.6     0.00002377     -6909.4366698591 -5.79E-04
    47 OT DIIS     0.80E-01   11.7     0.00002388     -6909.4373518008 -6.82E-04
    48 OT DIIS     0.80E-01   12.1     0.00002346     -6909.4379408495 -5.89E-04
    49 OT DIIS     0.80E-01   11.7     0.00002158     -6909.4384830090 -5.42E-04
    50 OT DIIS     0.80E-01   12.1     0.00002081     -6909.4390320658 -5.49E-04
    51 OT DIIS     0.80E-01   11.7     0.00002184     -6909.4396277724 -5.96E-04
    52 OT DIIS     0.80E-01   11.5     0.00002112     -6909.4403024114 -6.75E-04
    53 OT DIIS     0.80E-01   11.8     0.00002035     -6909.4409134002 -6.11E-04
    54 OT DIIS     0.80E-01   11.8     0.00001955     -6909.4413680791 -4.55E-04
    55 OT DIIS     0.80E-01   11.9     0.00001835     -6909.4416858921 -3.18E-04
    56 OT DIIS     0.80E-01   11.4     0.00001887     -6909.4421533916 -4.67E-04
    57 OT DIIS     0.80E-01   11.8     0.00001765     -6909.4427019284 -5.49E-04
    58 OT DIIS     0.80E-01   11.6     0.00001891     -6909.4434257237 -7.24E-04
    59 OT DIIS     0.80E-01   11.7     0.00001731     -6909.4437773639 -3.52E-04
    60 OT DIIS     0.80E-01   11.8     0.00001579     -6909.4440274140 -2.50E-04
    61 OT DIIS     0.80E-01   11.9     0.00001539     -6909.4442557263 -2.28E-04
    62 OT DIIS     0.80E-01   11.8     0.00001441     -6909.4446962109 -4.40E-04
    63 OT DIIS     0.80E-01   12.1     0.00001583     -6909.4450281004 -3.32E-04
    64 OT DIIS     0.80E-01   11.7     0.00001417     -6909.4454163479 -3.88E-04
    65 OT DIIS     0.80E-01   11.8     0.00001475     -6909.4460327372 -6.16E-04
    66 OT DIIS     0.80E-01   11.7     0.00001275     -6909.4462524116 -2.20E-04
    67 OT DIIS     0.80E-01   11.7     0.00001230     -6909.4463918745 -1.39E-04
    68 OT DIIS     0.80E-01   11.4     0.00001503     -6909.4465293501 -1.37E-04
    69 OT DIIS     0.80E-01   11.5     0.00001262     -6909.4466918832 -1.63E-04
    70 OT DIIS     0.80E-01   11.9     0.00001210     -6909.4468556177 -1.64E-04
    71 OT DIIS     0.80E-01   11.3     0.00001124     -6909.4470588002 -2.03E-04
    72 OT DIIS     0.80E-01   11.4     0.00001144     -6909.4474649599 -4.06E-04
    73 OT DIIS     0.80E-01   11.6     0.00001146     -6909.4476577677 -1.93E-04
    74 OT DIIS     0.80E-01   12.2     0.00001077     -6909.4478853215 -2.28E-04
    75 OT DIIS     0.80E-01   12.0     0.00001007     -6909.4480393607 -1.54E-04
    76 OT DIIS     0.80E-01   11.4     0.00001127     -6909.4481602860 -1.21E-04
    77 OT DIIS     0.80E-01   12.1     0.00000993     -6909.4483183321 -1.58E-04
    78 OT DIIS     0.80E-01   11.8     0.00000962     -6909.4484404007 -1.22E-04
    79 OT DIIS     0.80E-01   11.9     0.00000957     -6909.4487348524 -2.94E-04
    80 OT DIIS     0.80E-01   12.1     0.00000889     -6909.4488282439 -9.34E-05
    81 OT DIIS     0.80E-01   12.3     0.00000897     -6909.4489158757 -8.76E-05
    82 OT DIIS     0.80E-01   11.7     0.00000866     -6909.4490020860 -8.62E-05
    83 OT DIIS     0.80E-01   11.5     0.00000845     -6909.4491494376 -1.47E-04
    84 OT DIIS     0.80E-01   11.3     0.00000895     -6909.4493285040 -1.79E-04
    85 OT DIIS     0.80E-01   11.7     0.00000859     -6909.4495533208 -2.25E-04
    86 OT DIIS     0.80E-01   11.5     0.00000809     -6909.4496753742 -1.22E-04
    87 OT SD       0.80E-01   11.8     0.00000795     -6909.4496921221 -1.67E-05
    88 OT DIIS     0.80E-01   12.0     0.00001256     -6909.4497138466 -2.17E-05
    89 OT DIIS     0.80E-01   12.2     0.00000739     -6909.4498350418 -1.21E-04
    90 OT DIIS     0.80E-01   12.3     0.00000755     -6909.4500012400 -1.66E-04
    91 OT DIIS     0.80E-01   12.0     0.00000749     -6909.4501968439 -1.96E-04
    92 OT DIIS     0.80E-01   12.0     0.00000717     -6909.4503077773 -1.11E-04
    93 OT DIIS     0.80E-01   11.7     0.00000698     -6909.4503958803 -8.81E-05
    94 OT DIIS     0.80E-01   11.8     0.00000740     -6909.4504481558 -5.23E-05
    95 OT DIIS     0.80E-01   11.8     0.00000681     -6909.4505560038 -1.08E-04
    96 OT DIIS     0.80E-01   12.1     0.00000702     -6909.4506163576 -6.04E-05
    97 OT DIIS     0.80E-01   11.6     0.00000702     -6909.4508070498 -1.91E-04
    98 OT DIIS     0.80E-01   11.8     0.00000673     -6909.4509580375 -1.51E-04
    99 OT SD       0.80E-01   11.5     0.00000632     -6909.4509710603 -1.30E-05
   100 OT DIIS     0.80E-01   11.9     0.00000873     -6909.4509858962 -1.48E-05

  Leaving inner SCF loop after reaching   100 steps.


  Electronic density on regular grids:      -2431.9999999815        0.0000000185
  Core density on regular grids:             2431.9999999988       -0.0000000012
  Total charge density on r-space grids:        0.0000000173
  Total charge density g-space grids:           0.0000000173

  Overlap energy of the core charge distribution:               0.01602294260973
  Self energy of the core charge distribution:             -16017.19408509233290
  Core Hamiltonian energy:                                   4275.38303840293520
  Hartree energy:                                            6153.07211191031001
  Exchange-correlation energy:                              -1319.11911745341331
  Dispersion energy:                                           -1.60895660628254

  Total energy:                                             -6909.45098589617464

  outer SCF iter =    1 RMS gradient =   0.87E-05 energy =      -6909.4509858962

  ----------------------------------- OT ---------------------------------------
  Minimizer      : DIIS                : direct inversion
                                         in the iterative subspace
                                         using   7 DIIS vectors
                                         safer DIIS on
  Preconditioner : FULL_SINGLE_INVERSE : inversion of 
                                         H + eS - 2*(Sc)(c^T*H*c+const)(Sc)^T
  Precond_solver : DEFAULT
  stepsize       :    0.08000000                  energy_gap     :    0.08000000
  eps_taylor     :   0.10000E-15                  max_taylor     :             4
  ----------------------------------- OT ---------------------------------------

  Step     Update method      Time    Convergence         Total energy    Change
  ------------------------------------------------------------------------------
     1 OT DIIS     0.80E-01   33.6     0.00001124     -6909.4510872699 -1.01E-04
     2 OT DIIS     0.80E-01   11.3     0.00001644     -6909.4511372985 -5.00E-05
     3 OT DIIS     0.80E-01   11.3     0.00001092     -6909.4511537813 -1.65E-05
     4 OT DIIS     0.80E-01   11.2     0.00001091     -6909.4511965851 -4.28E-05
     5 OT DIIS     0.80E-01   11.5     0.00001071     -6909.4513394454 -1.43E-04
     6 OT DIIS     0.80E-01   11.2     0.00001059     -6909.4514290462 -8.96E-05
     7 OT DIIS     0.80E-01   11.0     0.00000979     -6909.4515089906 -7.99E-05
     8 OT DIIS     0.80E-01   11.0     0.00000953     -6909.4516191090 -1.10E-04
     9 OT DIIS     0.80E-01   11.2     0.00000951     -6909.4516698808 -5.08E-05
    10 OT DIIS     0.80E-01   11.3     0.00000954     -6909.4517768030 -1.07E-04
    11 OT DIIS     0.80E-01   11.0     0.00000957     -6909.4518621966 -8.54E-05
    12 OT DIIS     0.80E-01   11.5     0.00000905     -6909.4519674797 -1.05E-04
    13 OT DIIS     0.80E-01   11.1     0.00000873     -6909.4520961459 -1.29E-04
    14 OT DIIS     0.80E-01   10.8     0.00000865     -6909.4522038566 -1.08E-04
    15 OT DIIS     0.80E-01   11.4     0.00000850     -6909.4523215291 -1.18E-04
    16 OT DIIS     0.80E-01   11.2     0.00000862     -6909.4524584941 -1.37E-04
    17 OT DIIS     0.80E-01   11.2     0.00000850     -6909.4525742800 -1.16E-04
    18 OT DIIS     0.80E-01   11.2     0.00000830     -6909.4526771961 -1.03E-04
    19 OT DIIS     0.80E-01   11.7     0.00000800     -6909.4527441141 -6.69E-05
    20 OT DIIS     0.80E-01   11.8     0.00000823     -6909.4528802850 -1.36E-04
    21 OT DIIS     0.80E-01   12.0     0.00000830     -6909.4530316785 -1.51E-04
    22 OT DIIS     0.80E-01   12.0     0.00000803     -6909.4531823347 -1.51E-04
    23 OT DIIS     0.80E-01   11.8     0.00000767     -6909.4532302219 -4.79E-05
    24 OT DIIS     0.80E-01   12.4     0.00000831     -6909.4533434984 -1.13E-04
    25 OT DIIS     0.80E-01   11.5     0.00000901     -6909.4534420743 -9.86E-05
    26 OT DIIS     0.80E-01   12.2     0.00000801     -6909.4535541396 -1.12E-04
    27 OT SD       0.80E-01   11.7     0.00000903     -6909.4537836528 -2.30E-04
    28 OT DIIS     0.80E-01   11.6     0.00001309     -6909.4538013936 -1.77E-05
    29 OT DIIS     0.80E-01   11.5     0.00000756     -6909.4538872833 -8.59E-05
    30 OT SD       0.80E-01   11.8     0.00000813     -6909.4539790542 -9.18E-05
    31 OT DIIS     0.80E-01   11.6     0.00001889     -6909.4539881803 -9.13E-06
    32 OT DIIS     0.80E-01   11.9     0.00000765     -6909.4542382526 -2.50E-04
    33 OT DIIS     0.80E-01   11.7     0.00000987     -6909.4544511765 -2.13E-04
    34 OT SD       0.80E-01   11.7     0.00001033     -6909.4545343723 -8.32E-05
    35 OT SD       0.80E-01   11.7     0.00002000     -6909.4545375762 -3.20E-06
    36 OT DIIS     0.80E-01   12.3     0.00007823     -6909.4543142250  2.23E-04
    37 OT DIIS     0.80E-01   11.9     0.00000662     -6909.4546038003 -2.90E-04
    38 OT DIIS     0.80E-01   11.7     0.00000643     -6909.4546079598 -4.16E-06
    39 OT SD       0.80E-01   11.7     0.00000720     -6909.4547710668 -1.63E-04
    40 OT DIIS     0.80E-01   12.1     0.00001745     -6909.4547766209 -5.55E-06
    41 OT SD       0.80E-01   11.8     0.00000720     -6909.4550007410 -2.24E-04
    42 OT DIIS     0.80E-01   11.7     0.00001505     -6909.4550072518 -6.51E-06
    43 OT DIIS     0.80E-01   11.7     0.00000922     -6909.4550277644 -2.05E-05
    44 OT DIIS     0.80E-01   11.9     0.00000621     -6909.4552230124 -1.95E-04
    45 OT SD       0.80E-01   11.8     0.00000738     -6909.4553433524 -1.20E-04
    46 OT DIIS     0.80E-01   11.6     0.00001278     -6909.4553492797 -5.93E-06
    47 OT DIIS     0.80E-01   11.9     0.00000593     -6909.4553719543 -2.27E-05
    48 OT SD       0.80E-01   11.9     0.00000573     -6909.4554365275 -6.46E-05
    49 OT DIIS     0.80E-01   11.7     0.00001320     -6909.4554418115 -5.28E-06
    50 OT DIIS     0.80E-01   11.8     0.00000520     -6909.4555327044 -9.09E-05
    51 OT DIIS     0.80E-01   11.8     0.00000543     -6909.4555852253 -5.25E-05
    52 OT SD       0.80E-01   11.7     0.00000635     -6909.4556864491 -1.01E-04
    53 OT SD       0.80E-01   11.9     0.00001168     -6909.4556913646 -4.92E-06
    54 OT DIIS     0.80E-01   12.0     0.00004593     -6909.4556194518  7.19E-05
    55 OT SD       0.80E-01   11.9     0.00000510     -6909.4557492556 -1.30E-04
    56 OT DIIS     0.80E-01   11.9     0.00000992     -6909.4557551660 -5.91E-06
    57 OT DIIS     0.80E-01   11.6     0.00000460     -6909.4558213942 -6.62E-05
    58 OT DIIS     0.80E-01   11.7     0.00000567     -6909.4559058522 -8.45E-05
    59 OT SD       0.80E-01   11.8     0.00000594     -6909.4559747805 -6.89E-05
    60 OT SD       0.80E-01   11.9     0.00001136     -6909.4559777214 -2.94E-06
    61 OT DIIS     0.80E-01   12.0     0.00004349     -6909.4559101528  6.76E-05
    62 OT DIIS     0.80E-01   11.8     0.00000431     -6909.4560283801 -1.18E-04
    63 OT DIIS     0.80E-01   12.3     0.00000485     -6909.4560736259 -4.52E-05
    64 OT DIIS     0.80E-01   11.8     0.00000441     -6909.4560932847 -1.97E-05
    65 OT DIIS     0.80E-01   12.0     0.00000485     -6909.4561486680 -5.54E-05
    66 OT SD       0.80E-01   11.7     0.00000516     -6909.4561521496 -3.48E-06
    67 OT DIIS     0.80E-01   12.4     0.00001801     -6909.4561468915  5.26E-06
    68 OT DIIS     0.80E-01   11.9     0.00000432     -6909.4562027825 -5.59E-05
    69 OT DIIS     0.80E-01   12.0     0.00000462     -6909.4562378533 -3.51E-05
    70 OT DIIS     0.80E-01   11.9     0.00000412     -6909.4562403995 -2.55E-06
    71 OT DIIS     0.80E-01   11.7     0.00000478     -6909.4562553830 -1.50E-05
    72 OT SD       0.80E-01   11.9     0.00000458     -6909.4562763071 -2.09E-05
    73 OT DIIS     0.80E-01   11.5     0.00001411     -6909.4562743340  1.97E-06
    74 OT DIIS     0.80E-01   11.7     0.00000399     -6909.4562904561 -1.61E-05
    75 OT DIIS     0.80E-01   11.4     0.00000348     -6909.4563008361 -1.04E-05
    76 OT DIIS     0.80E-01   11.7     0.00000428     -6909.4563155679 -1.47E-05
    77 OT SD       0.80E-01   11.8     0.00000383     -6909.4563682530 -5.27E-05
    78 OT DIIS     0.80E-01   11.7     0.00001073     -6909.4563688569 -6.04E-07
    79 OT DIIS     0.80E-01   11.6     0.00000364     -6909.4564230429 -5.42E-05
    80 OT DIIS     0.80E-01   12.1     0.00000359     -6909.4564254616 -2.42E-06
    81 OT SD       0.80E-01   11.6     0.00000370     -6909.4564669943 -4.15E-05
    82 OT SD       0.80E-01   11.8     0.00000688     -6909.4564694621 -2.47E-06
    83 OT DIIS     0.80E-01   11.8     0.00002728     -6909.4564446123  2.48E-05
    84 OT SD       0.80E-01   12.0     0.00000308     -6909.4564929199 -4.83E-05
    85 OT DIIS     0.80E-01   11.9     0.00000441     -6909.4564963767 -3.46E-06
    86 OT DIIS     0.80E-01   11.7     0.00000311     -6909.4565235318 -2.72E-05
    87 OT DIIS     0.80E-01   11.7     0.00000302     -6909.4565461219 -2.26E-05
    88 OT DIIS     0.80E-01   11.9     0.00000333     -6909.4565697400 -2.36E-05
    89 OT DIIS     0.80E-01   11.7     0.00000316     -6909.4565703246 -5.85E-07
    90 OT DIIS     0.80E-01   11.4     0.00000312     -6909.4565756455 -5.32E-06
    91 OT SD       0.80E-01   11.8     0.00000355     -6909.4566211294 -4.55E-05
    92 OT DIIS     0.80E-01   12.1     0.00000691     -6909.4566227958 -1.67E-06
    93 OT DIIS     0.80E-01   11.9     0.00000306     -6909.4566435952 -2.08E-05
    94 OT SD       0.80E-01   11.9     0.00000287     -6909.4566511414 -7.55E-06
    95 OT DIIS     0.80E-01   12.0     0.00000566     -6909.4566532335 -2.09E-06
    96 OT DIIS     0.80E-01   11.8     0.00000330     -6909.4567011937 -4.80E-05
    97 OT DIIS     0.80E-01   11.7     0.00000295     -6909.4567186835 -1.75E-05
    98 OT SD       0.80E-01   11.9     0.00000355     -6909.4567452824 -2.66E-05
    99 OT SD       0.80E-01   11.7     0.00000622     -6909.4567465075 -1.23E-06
   100 OT DIIS     0.80E-01   12.0     0.00002106     -6909.4567308607  1.56E-05

  Leaving inner SCF loop after reaching   100 steps.


  Electronic density on regular grids:      -2431.9999999814        0.0000000186
  Core density on regular grids:             2431.9999999988       -0.0000000012
  Total charge density on r-space grids:        0.0000000174
  Total charge density g-space grids:           0.0000000174

  Overlap energy of the core charge distribution:               0.01602294260973
  Self energy of the core charge distribution:             -16017.19408509233290
  Core Hamiltonian energy:                                   4275.36557533518499
  Hartree energy:                                            6153.08742568356774
  Exchange-correlation energy:                              -1319.12271312347616
  Dispersion energy:                                           -1.60895660628254

  Total energy:                                             -6909.45673086073020

  outer SCF iter =    2 RMS gradient =   0.21E-04 energy =      -6909.4567308607

  ----------------------------------- OT ---------------------------------------
  Minimizer      : DIIS                : direct inversion
                                         in the iterative subspace
                                         using   7 DIIS vectors
                                         safer DIIS on
  Preconditioner : FULL_SINGLE_INVERSE : inversion of 
                                         H + eS - 2*(Sc)(c^T*H*c+const)(Sc)^T
  Precond_solver : DEFAULT
  stepsize       :    0.08000000                  energy_gap     :    0.08000000
  eps_taylor     :   0.10000E-15                  max_taylor     :             4
  ----------------------------------- OT ---------------------------------------

  Step     Update method      Time    Convergence         Total energy    Change
  ------------------------------------------------------------------------------
     1 OT DIIS     0.80E-01   34.1     0.00000271     -6909.4567497857 -1.89E-05
     2 OT DIIS     0.80E-01   10.5     0.00000459     -6909.4567524356 -2.65E-06
     3 OT DIIS     0.80E-01   11.4     0.00000261     -6909.4567535603 -1.12E-06
     4 OT DIIS     0.80E-01   11.1     0.00000258     -6909.4567550907 -1.53E-06
     5 OT DIIS     0.80E-01   11.4     0.00000261     -6909.4567596955 -4.60E-06
     6 OT DIIS     0.80E-01   11.1     0.00000280     -6909.4567748946 -1.52E-05
     7 OT DIIS     0.80E-01   11.7     0.00000258     -6909.4567953380 -2.04E-05
     8 OT DIIS     0.80E-01   11.5     0.00000237     -6909.4568092250 -1.39E-05
     9 OT DIIS     0.80E-01   10.8     0.00000232     -6909.4568207772 -1.16E-05
[...]
     4 OT DIIS     0.80E-01   10.8     0.00000258     -6920.4945991057 -7.13E-07
     5 OT SD       0.80E-01   11.0     0.00000257     -6920.4945999300 -8.24E-07
     6 OT SD       0.80E-01   10.8     0.00000258     -6920.4946031350 -3.20E-06
     7 OT SD       0.80E-01   11.1     0.00000263     -6920.4946063331 -3.20E-06
     8 OT SD       0.80E-01   11.0     0.00000364     -6920.4946092912 -2.96E-06
     9 OT SD       0.80E-01   11.3     0.00001330     -6920.4946060436  3.25E-06
    10 OT DIIS     0.80E-01   11.2     0.00006769     -6920.4944374012  1.69E-04
    11 OT DIIS     0.80E-01   11.2     0.00000262     -6920.4945711854 -1.34E-04
    12 OT DIIS     0.80E-01   11.0     0.00000263     -6920.4945729679 -1.78E-06
    13 OT DIIS     0.80E-01   10.6     0.00000265     -6920.4945767630 -3.80E-06
    14 OT DIIS     0.80E-01   11.0     0.00000258     -6920.4945862469 -9.48E-06
    15 OT SD       0.80E-01   10.9     0.00000262     -6920.4945915168 -5.27E-06
    16 OT SD       0.80E-01   10.7     0.00000371     -6920.4945944327 -2.92E-06
    17 OT DIIS     0.80E-01   11.0     0.00001427     -6920.4945902805  4.15E-06
    18 OT DIIS     0.80E-01   11.3     0.00000257     -6920.4945963462 -6.07E-06
    19 OT DIIS     0.80E-01   11.3     0.00000257     -6920.4945978535 -1.51E-06
    20 OT SD       0.80E-01   11.1     0.00000257     -6920.4945998666 -2.01E-06
    21 OT SD       0.80E-01   11.2     0.00000258     -6920.4946030560 -3.19E-06
    22 OT SD       0.80E-01   10.7     0.00000285     -6920.4946061909 -3.13E-06
    23 OT SD       0.80E-01   10.9     0.00000650     -6920.4946079824 -1.79E-06
    24 OT DIIS     0.80E-01   10.7     0.00002937     -6920.4945776085  3.04E-05
    25 OT SD       0.80E-01   11.4     0.00000259     -6920.4945757447  1.86E-06
    26 OT SD       0.80E-01   11.0     0.00000280     -6920.4945788753 -3.13E-06
    27 OT DIIS     0.80E-01   11.4     0.00000579     -6920.4945809986 -2.12E-06
    28 OT SD       0.80E-01   11.2     0.00000258     -6920.4945804069  5.92E-07
    29 OT SD       0.80E-01   11.2     0.00000302     -6920.4945834854 -3.08E-06
    30 OT DIIS     0.80E-01   11.0     0.00000878     -6920.4945840304 -5.45E-07
    31 OT DIIS     0.80E-01   11.0     0.00000256     -6920.4945935199 -9.49E-06
    32 OT SD       0.80E-01   10.9     0.00000256     -6920.4946019950 -8.48E-06
    33 OT SD       0.80E-01   11.5     0.00000259     -6920.4946051617 -3.17E-06
    34 OT SD       0.80E-01   11.0     0.00000309     -6920.4946082198 -3.06E-06
    35 OT SD       0.80E-01   10.8     0.00000880     -6920.4946086328 -4.13E-07
    36 OT DIIS     0.80E-01   11.0     0.00004209     -6920.4945435886  6.50E-05
    37 OT SD       0.80E-01   11.0     0.00000260     -6920.4945852540 -4.17E-05
    38 OT SD       0.80E-01   11.1     0.00000334     -6920.4945882260 -2.97E-06
    39 OT SD       0.80E-01   11.1     0.00001124     -6920.4945868384  1.39E-06
    40 OT DIIS     0.80E-01   10.8     0.00005707     -6920.4944682666  1.19E-04
    41 OT DIIS     0.80E-01   11.2     0.00000260     -6920.4945645938 -9.63E-05
    42 OT DIIS     0.80E-01   10.7     0.00000256     -6920.4945819786 -1.74E-05
    43 OT SD       0.80E-01   10.9     0.00000256     -6920.4945902313 -8.25E-06
    44 OT DIIS     0.80E-01   11.0     0.00000286     -6920.4945933143 -3.08E-06
    45 OT SD       0.80E-01   10.5     0.00000257     -6920.4945939054 -5.91E-07
    46 OT SD       0.80E-01   11.0     0.00000294     -6920.4945969582 -3.05E-06
    47 OT DIIS     0.80E-01   11.2     0.00000777     -6920.4945980267 -1.07E-06
    48 OT SD       0.80E-01   11.6     0.00000258     -6920.4946061229 -8.10E-06
    49 OT DIIS     0.80E-01   11.3     0.00000307     -6920.4946091264 -3.00E-06
    50 OT SD       0.80E-01   11.7     0.00000255     -6920.4946172580 -8.13E-06
    51 OT SD       0.80E-01   11.0     0.00000264     -6920.4946203733 -3.12E-06
    52 OT SD       0.80E-01   10.5     0.00000433     -6920.4946230495 -2.68E-06
    53 OT DIIS     0.80E-01   11.3     0.00001825     -6920.4946139072  9.14E-06
    54 OT SD       0.80E-01   11.1     0.00000262     -6920.4946022749  1.16E-05
    55 OT SD       0.80E-01   11.1     0.00000429     -6920.4946049141 -2.64E-06
    56 OT SD       0.80E-01   10.9     0.00001832     -6920.4945957427  9.17E-06
    57 OT DIIS     0.80E-01   11.0     0.00009615     -6920.4942567572  3.39E-04
    58 OT DIIS     0.80E-01   11.1     0.00000377     -6920.4945266691 -2.70E-04
    59 OT DIIS     0.80E-01   11.0     0.00000264     -6920.4945936411 -6.70E-05
    60 OT DIIS     0.80E-01   10.8     0.00000257     -6920.4946090631 -1.54E-05
    61 OT DIIS     0.80E-01   11.1     0.00000273     -6920.4946167456 -7.68E-06
    62 OT SD       0.80E-01   11.2     0.00000270     -6920.4946291709 -1.24E-05
    63 OT SD       0.80E-01   11.1     0.00000313     -6920.4946322464 -3.08E-06
    64 OT SD       0.80E-01   11.0     0.00000797     -6920.4946331846 -9.38E-07
    65 OT DIIS     0.80E-01   11.4     0.00003713     -6920.4945834780  4.97E-05
    66 OT SD       0.80E-01   11.0     0.00000262     -6920.4945943320 -1.09E-05
    67 OT SD       0.80E-01   10.9     0.00000389     -6920.4945970325 -2.70E-06
    68 OT SD       0.80E-01   10.5     0.00001445     -6920.4945922721  4.76E-06
    69 OT DIIS     0.80E-01   11.0     0.00007293     -6920.4943951171  1.97E-04
    70 OT DIIS     0.80E-01   11.1     0.00000323     -6920.4945417696 -1.47E-04
    71 OT DIIS     0.80E-01   10.6     0.00000252     -6920.4945902923 -4.85E-05
    72 OT DIIS     0.80E-01   10.8     0.00000254     -6920.4945996305 -9.34E-06
    73 OT SD       0.80E-01   11.2     0.00000261     -6920.4945998448 -2.14E-07
    74 OT SD       0.80E-01   10.9     0.00000431     -6920.4946024312 -2.59E-06
    75 OT DIIS     0.80E-01   11.0     0.00001785     -6920.4945935278  8.90E-06
    76 OT SD       0.80E-01   10.9     0.00000258     -6920.4945967577 -3.23E-06
    77 OT DIIS     0.80E-01   11.4     0.00000373     -6920.4945995316 -2.77E-06
    78 OT DIIS     0.80E-01   11.0     0.00000253     -6920.4946014500 -1.92E-06
    79 OT DIIS     0.80E-01   10.9     0.00000252     -6920.4946077983 -6.35E-06
    80 OT SD       0.80E-01   10.7     0.00000253     -6920.4946122233 -4.42E-06
    81 OT SD       0.80E-01   11.3     0.00000269     -6920.4946152506 -3.03E-06
    82 OT SD       0.80E-01   11.4     0.00000486     -6920.4946176112 -2.36E-06
    83 OT DIIS     0.80E-01   11.3     0.00001958     -6920.4946055392  1.21E-05
    84 OT SD       0.80E-01   10.9     0.00000261     -6920.4946023657  3.17E-06
    85 OT SD       0.80E-01   11.0     0.00000450     -6920.4946048657 -2.50E-06
    86 OT SD       0.80E-01   10.6     0.00001984     -6920.4945935301  1.13E-05
    87 OT DIIS     0.80E-01   11.0     0.00010491     -6920.4941910198  4.03E-04
    88 OT DIIS     0.80E-01   11.0     0.00000418     -6920.4945208150 -3.30E-04
    89 OT DIIS     0.80E-01   11.0     0.00000253     -6920.4946053602 -8.45E-05
    90 OT DIIS     0.80E-01   11.0     0.00000252     -6920.4946085970 -3.24E-06
    91 OT DIIS     0.80E-01   10.9     0.00000253     -6920.4946112034 -2.61E-06
    92 OT DIIS     0.80E-01   11.0     0.00000254     -6920.4946167509 -5.55E-06
    93 OT SD       0.80E-01   11.1     0.00000254     -6920.4946173292 -5.78E-07
    94 OT SD       0.80E-01   11.1     0.00000273     -6920.4946203589 -3.03E-06
    95 OT SD       0.80E-01   11.0     0.00000537     -6920.4946225445 -2.19E-06
    96 OT DIIS     0.80E-01   10.8     0.00002326     -6920.4946047640  1.78E-05
    97 OT SD       0.80E-01   11.1     0.00000274     -6920.4945858104  1.90E-05
    98 OT SD       0.80E-01   10.9     0.00000583     -6920.4945877250 -1.91E-06
    99 OT SD       0.80E-01   10.9     0.00002750     -6920.4945629088  2.48E-05
   100 OT DIIS     0.80E-01   10.7     0.00014682     -6920.4937772402  7.86E-04

  Leaving inner SCF loop after reaching   100 steps.


  Electronic density on regular grids:      -2431.9999999625        0.0000000375
  Core density on regular grids:             2431.9999999988       -0.0000000012
  Total charge density on r-space grids:        0.0000000363
  Total charge density g-space grids:           0.0000000363

  Overlap energy of the core charge distribution:               0.00000919420345
  Self energy of the core charge distribution:             -16017.19408509233290
  Core Hamiltonian energy:                                   4259.77866949403415
  Hartree energy:                                            6156.32985671539973
  Exchange-correlation energy:                              -1317.81447463051563
  Dispersion energy:                                           -1.59375292100096

  Total energy:                                             -6920.49377724021269

  outer SCF iter =    5 RMS gradient =   0.15E-03 energy =      -6920.4937772402

  ----------------------------------- OT ---------------------------------------
  Minimizer      : DIIS                : direct inversion
                                         in the iterative subspace
                                         using   7 DIIS vectors
                                         safer DIIS on
  Preconditioner : FULL_SINGLE_INVERSE : inversion of 
                                         H + eS - 2*(Sc)(c^T*H*c+const)(Sc)^T
  Precond_solver : DEFAULT
  stepsize       :    0.08000000                  energy_gap     :    0.08000000
  eps_taylor     :   0.10000E-15                  max_taylor     :             4
  ----------------------------------- OT ---------------------------------------

  Step     Update method      Time    Convergence         Total energy    Change
  ------------------------------------------------------------------------------
     1 OT DIIS     0.80E-01   32.1     0.00000348     -6920.4945273476 -7.50E-04
     2 OT DIIS     0.80E-01   10.8     0.00000488     -6920.4945298219 -2.47E-06
     3 OT DIIS     0.80E-01   10.8     0.00000374     -6920.4945318159 -1.99E-06
     4 OT DIIS     0.80E-01   10.6     0.00000264     -6920.4945330056 -1.19E-06
     5 OT DIIS     0.80E-01   10.8     0.00000253     -6920.4945347230 -1.72E-06
     6 OT DIIS     0.80E-01   10.9     0.00000255     -6920.4945370118 -2.29E-06
     7 OT DIIS     0.80E-01   11.0     0.00000248     -6920.4945394594 -2.45E-06
     8 OT DIIS     0.80E-01   10.7     0.00000248     -6920.4945469979 -7.54E-06
     9 OT DIIS     0.80E-01   11.1     0.00000250     -6920.4945541310 -7.13E-06
    10 OT DIIS     0.80E-01   11.0     0.00000249     -6920.4945676863 -1.36E-05
    11 OT DIIS     0.80E-01   11.0     0.00000248     -6920.4945773268 -9.64E-06
    12 OT DIIS     0.80E-01   11.3     0.00000253     -6920.4945797168 -2.39E-06
    13 OT DIIS     0.80E-01   10.8     0.00000246     -6920.4945896425 -9.93E-06
    14 OT DIIS     0.80E-01   11.0     0.00000246     -6920.4945980638 -8.42E-06
    15 OT DIIS     0.80E-01   10.5     0.00000241     -6920.4946010209 -2.96E-06
    16 OT DIIS     0.80E-01   10.8     0.00000241     -6920.4946013693 -3.48E-07
    17 OT SD       0.80E-01   10.8     0.00000241     -6920.4946046725 -3.30E-06
    18 OT DIIS     0.80E-01   10.9     0.00000289     -6920.4946073235 -2.65E-06
    19 OT DIIS     0.80E-01   11.4     0.00000239     -6920.4946077888 -4.65E-07
    20 OT SD       0.80E-01   11.3     0.00000239     -6920.4946081683 -3.80E-07
    21 OT SD       0.80E-01   10.8     0.00000240     -6920.4946109265 -2.76E-06
    22 OT SD       0.80E-01   11.1     0.00000266     -6920.4946136373 -2.71E-06
    23 OT SD       0.80E-01   10.9     0.00000648     -6920.4946150328 -1.40E-06
    24 OT DIIS     0.80E-01   11.3     0.00003136     -6920.4945810457  3.40E-05
    25 OT SD       0.80E-01   11.2     0.00000239     -6920.4945956476 -1.46E-05
    26 OT SD       0.80E-01   11.0     0.00000246     -6920.4945983800 -2.73E-06
    27 OT SD       0.80E-01   11.2     0.00000381     -6920.4946007810 -2.40E-06
    28 OT SD       0.80E-01   11.5     0.00001519     -6920.4945948987  5.88E-06
    29 OT DIIS     0.80E-01   11.4     0.00007660     -6920.4943744320  2.20E-04
    30 OT DIIS     0.80E-01   11.3     0.00000242     -6920.4945949741 -2.21E-04
    31 OT DIIS     0.80E-01   11.0     0.00000238     -6920.4946025163 -7.54E-06
    32 OT SD       0.80E-01   10.9     0.00000239     -6920.4946042346 -1.72E-06
    33 OT SD       0.80E-01   11.0     0.00000268     -6920.4946069125 -2.68E-06
    34 OT DIIS     0.80E-01   11.0     0.00000644     -6920.4946082711 -1.36E-06
    35 OT DIIS     0.80E-01   11.2     0.00000238     -6920.4946091666 -8.95E-07
    36 OT DIIS     0.80E-01   11.1     0.00000238     -6920.4946110171 -1.85E-06
    37 OT DIIS     0.80E-01   11.1     0.00000239     -6920.4946112653 -2.48E-07
    38 OT DIIS     0.80E-01   11.5     0.00000238     -6920.4946135962 -2.33E-06
    39 OT DIIS     0.80E-01   11.5     0.00000238     -6920.4946161177 -2.52E-06
    40 OT SD       0.80E-01   11.1     0.00000238     -6920.4946218977 -5.78E-06
    41 OT SD       0.80E-01   11.5     0.00000246     -6920.4946246269 -2.73E-06
    42 OT SD       0.80E-01   11.1     0.00000396     -6920.4946269991 -2.37E-06
    43 OT SD       0.80E-01   11.2     0.00001657     -6920.4946196646  7.33E-06
    44 OT DIIS     0.80E-01   11.2     0.00008597     -6920.4943466445  2.73E-04
    45 OT SD       0.80E-01   11.1     0.00000256     -6920.4945786631 -2.32E-04
    46 OT SD       0.80E-01   11.1     0.00000351     -6920.4945811314 -2.47E-06
    47 OT DIIS     0.80E-01   11.0     0.00001200     -6920.4945783895  2.74E-06
    48 OT SD       0.80E-01   11.3     0.00000238     -6920.4945925757 -1.42E-05
    49 OT SD       0.80E-01   11.5     0.00000287     -6920.4945951587 -2.58E-06
    50 OT DIIS     0.80E-01   10.9     0.00000835     -6920.4945953325 -1.74E-07
    51 OT DIIS     0.80E-01   11.2     0.00000236     -6920.4945987061 -3.37E-06
    52 OT SD       0.80E-01   11.0     0.00000236     -6920.4946017750 -3.07E-06
    53 OT SD       0.80E-01   11.1     0.00000242     -6920.4946044508 -2.68E-06
    54 OT SD       0.80E-01   11.4     0.00000371     -6920.4946068330 -2.38E-06
    55 OT DIIS     0.80E-01   11.2     0.00001527     -6920.4946010726  5.76E-06
    56 OT SD       0.80E-01   11.1     0.00000236     -6920.4945971936  3.88E-06
    57 OT SD       0.80E-01   11.4     0.00000244     -6920.4945998619 -2.67E-06
    58 OT SD       0.80E-01   11.2     0.00000398     -6920.4946021471 -2.29E-06
    59 OT DIIS     0.80E-01   11.4     0.00001619     -6920.4945948970  7.25E-06
    60 OT DIIS     0.80E-01   11.1     0.00000237     -6920.4945869628  7.93E-06
    61 OT SD       0.80E-01   11.0     0.00000236     -6920.4945995345 -1.26E-05
    62 OT SD       0.80E-01   10.9     0.00000240     -6920.4946022048 -2.67E-06
    63 OT SD       0.80E-01   11.1     0.00000320     -6920.4946046964 -2.49E-06
    64 OT SD       0.80E-01   11.1     0.00001065     -6920.4946031287  1.57E-06
    65 OT DIIS     0.80E-01   11.4     0.00005127     -6920.4945036019  9.95E-05
    66 OT SD       0.80E-01   11.0     0.00000235     -6920.4945905685 -8.70E-05
    67 OT SD       0.80E-01   10.7     0.00000242     -6920.4945932346 -2.67E-06
    68 OT SD       0.80E-01   11.0     0.00000371     -6920.4945956027 -2.37E-06
    69 OT DIIS     0.80E-01   11.3     0.00001527     -6920.4945898152  5.79E-06
    70 OT DIIS     0.80E-01   11.3     0.00000236     -6920.4945912005 -1.39E-06
    71 OT DIIS     0.80E-01   11.1     0.00000235     -6920.4945991509 -7.95E-06
    72 OT SD       0.80E-01   11.4     0.00000235     -6920.4946060277 -6.88E-06
    73 OT SD       0.80E-01   11.0     0.00000238     -6920.4946087002 -2.67E-06
    74 OT SD       0.80E-01   11.1     0.00000285     -6920.4946112784 -2.58E-06
    75 OT SD       0.80E-01   11.3     0.00000819     -6920.4946115602 -2.82E-07
    76 OT DIIS     0.80E-01   11.0     0.00003923     -6920.4945550368  5.65E-05
    77 OT SD       0.80E-01   10.9     0.00000239     -6920.4945836725 -2.86E-05
    78 OT SD       0.80E-01   11.0     0.00000280     -6920.4945862423 -2.57E-06
    79 OT SD       0.80E-01   10.8     0.00000762     -6920.4945868760 -6.34E-07
    80 OT DIIS     0.80E-01   11.2     0.00003728     -6920.4945373962  4.95E-05
    81 OT DIIS     0.80E-01   10.9     0.00000237     -6920.4945725817 -3.52E-05
    82 OT SD       0.80E-01   11.2     0.00000234     -6920.4945869751 -1.44E-05
    83 OT DIIS     0.80E-01   11.0     0.00000240     -6920.4945896170 -2.64E-06
    84 OT DIIS     0.80E-01   11.0     0.00000234     -6920.4945947716 -5.15E-06
    85 OT SD       0.80E-01   11.1     0.00000236     -6920.4946023714 -7.60E-06
    86 OT SD       0.80E-01   11.1     0.00000273     -6920.4946049473 -2.58E-06
    87 OT SD       0.80E-01   11.1     0.00000738     -6920.4946057221 -7.75E-07
    88 OT DIIS     0.80E-01   11.2     0.00003587     -6920.4945598033  4.59E-05
    89 OT SD       0.80E-01   11.4     0.00000234     -6920.4945978547 -3.81E-05
    90 OT SD       0.80E-01   11.0     0.00000240     -6920.4946004947 -2.64E-06
    91 OT SD       0.80E-01   10.9     0.00000363     -6920.4946028588 -2.36E-06
    92 OT DIIS     0.80E-01   11.2     0.00001483     -6920.4945975670  5.29E-06
    93 OT DIIS     0.80E-01   11.1     0.00000234     -6920.4945909705  6.60E-06
    94 OT SD       0.80E-01   11.0     0.00000234     -6920.4945970775 -6.11E-06
    95 OT SD       0.80E-01   11.3     0.00000238     -6920.4945997189 -2.64E-06
    96 OT SD       0.80E-01   10.9     0.00000315     -6920.4946021878 -2.47E-06
    97 OT DIIS     0.80E-01   11.4     0.00001035     -6920.4946008037  1.38E-06
    98 OT SD       0.80E-01   11.1     0.00000234     -6920.4945977306  3.07E-06
    99 OT SD       0.80E-01   11.3     0.00000241     -6920.4946003689 -2.64E-06
   100 OT SD       0.80E-01   11.0     0.00000373     -6920.4946027019 -2.33E-06

  Leaving inner SCF loop after reaching   100 steps.


  Electronic density on regular grids:      -2431.9999999625        0.0000000375
  Core density on regular grids:             2431.9999999988       -0.0000000012
  Total charge density on r-space grids:        0.0000000363
  Total charge density g-space grids:           0.0000000363

  Overlap energy of the core charge distribution:               0.00000919420345
  Self energy of the core charge distribution:             -16017.19408509233290
  Core Hamiltonian energy:                                   4259.77933317861698
  Hartree energy:                                            6156.32854666881485
  Exchange-correlation energy:                              -1317.81465373021160
  Dispersion energy:                                           -1.59375292100096

  Total energy:                                             -6920.49460270191139

  outer SCF iter =    6 RMS gradient =   0.37E-05 energy =      -6920.4946027019

  ----------------------------------- OT ---------------------------------------
  Minimizer      : DIIS                : direct inversion
                                         in the iterative subspace
                                         using   7 DIIS vectors
                                         safer DIIS on
  Preconditioner : FULL_SINGLE_INVERSE : inversion of 
                                         H + eS - 2*(Sc)(c^T*H*c+const)(Sc)^T
  Precond_solver : DEFAULT
  stepsize       :    0.08000000                  energy_gap     :    0.08000000
  eps_taylor     :   0.10000E-15                  max_taylor     :             4
  ----------------------------------- OT ---------------------------------------

  Step     Update method      Time    Convergence         Total energy    Change
  ------------------------------------------------------------------------------
     1 OT DIIS     0.80E-01   33.0     0.00001544     -6920.4945967198  5.98E-06
     2 OT DIIS     0.80E-01   11.2     0.00008133     -6920.4943557410  2.41E-04
     3 OT DIIS     0.80E-01   10.7     0.00000450     -6920.4946081491 -2.52E-04
