#     Step Nr.          Time[fs]        Kin.[a.u.]          Temp[K]            Pot.[a.u.]        Cons Qty[a.u.]        UsedTime[s]
         0            0.000000         1.784079260       973.000000000     -6728.203448358     -6726.419369098         0.000000000
         1            0.100000         7.076128422      3859.174371183     -6733.717917734     -6726.623126615      2998.885992642
         2            0.200000        19.559564901     10667.382935653     -6746.690740344     -6727.028071039       488.993748949
         3            0.300000        34.900831603     19034.193110674     -6762.639881565     -6727.412586835       361.974930682
         4            0.400000        50.230282908     27394.559411503     -6778.588381448     -6727.676769442       599.985023302
         5            0.500000        64.218212005     35023.287192904     -6793.259657293     -6727.821604197       873.610003748
