 DBCSR| CPU Multiplication driver                                           XSMM (U)
 DBCSR| Multrec recursion limit                                              512 (U)
 DBCSR| Multiplication stack size                                          30000 (D)
 DBCSR| Maximum elements for images                                    UNLIMITED (U)
 DBCSR| Multiplicative factor virtual images                                   1 (U)
 DBCSR| Use multiplication densification                                       F (D)
 DBCSR| Multiplication size stacks                                             3 (U)
 DBCSR| Use memory pool for CPU allocation                                     F (U)
 DBCSR| Number of 3D layers                                               SINGLE (U)
 DBCSR| Use MPI memory allocation                                              F (U)
 DBCSR| Use RMA algorithm                                                      F (U)
 DBCSR| Use Communication thread                                               T (U)
 DBCSR| Communication thread load                                             30 (D)
 DBCSR| MPI: My process id                                                     0
 DBCSR| MPI: Number of processes                                               1
 DBCSR| OMP: Current number of threads                                        16
 DBCSR| OMP: Max number of threads                                            16
 DBCSR| ACC: Number of devices/node                                            1
 DBCSR| ACC: Number of stack-buffers per thread                                8 (U)
 DBCSR| ACC: Avoid driver after busy                                           F (U)
 DBCSR| ACC: Process inhomogeneous stacks                                      T (U)
 DBCSR| ACC: Min. flop for processing                                          0 (U)
 DBCSR| ACC: Use G2G algorithm                                                 F (D)
 DBCSR| ACC: Min. flop for sorting                                          4000 (U)
 DBCSR| ACC: Number of binning bins                                         4096 (U)
 DBCSR| ACC: Size of binning bins                                             16 (U)
 DBCSR| ACC: GPU backend is enabled                                            T (D)
 DBCSR| Split modifier for TAS multiplication algorithm                  1.0E+00 (U)


  **** **** ******  **  PROGRAM STARTED AT               2025-10-13 00:27:39.509
 ***** ** ***  *** **   PROGRAM STARTED ON                          6320c3243fc6
 **    ****   ******    PROGRAM STARTED BY                             <unknown>
 ***** **    ** ** **   PROGRAM PROCESS ID                                   614
  **** **  *******  **  PROGRAM STARTED IN                             /mnt/cp2k

 CP2K| version string:                                       CP2K version 2025.1
 CP2K| source code revision number:                                  git:9635df4
 CP2K| cp2kflags: omp libint fftw3 libxc libgrpp pexsi elpa elpa_nvidia_gpu para
 CP2K|            llel scalapack cosma quip xsmm dbcsr_acc plumed2 spglib libdft
 CP2K|            td4 sirius libvori libbqb offload_cuda spla_gemm_offloading li
 CP2K|            ibvdwxc hdf5 trexio
 CP2K| is freely available from                            https://www.cp2k.org/
 CP2K| Program compiled at                          Tue Jan 14 21:07:27 UTC 2025
 CP2K| Program compiled on                                          eb3a76499499
 CP2K| Program compiled for                                           local_cuda
 CP2K| Data directory path                                        /opt/cp2k/data
 CP2K| Input file name                                           HAP_502_opt.inp

 GLOBAL| Force Environment number                                              1
 GLOBAL| Basis set file name                                        BASIS_MOLOPT
 GLOBAL| Potential file name                                      GTH_POTENTIALS
 GLOBAL| MM Potential file name                                     MM_POTENTIAL
 GLOBAL| Coordinate file name                                  HAP_502_clean.xyz
 GLOBAL| Method name                                                        CP2K
 GLOBAL| Project name                                                HAP_502_opt
 GLOBAL| Run type                                                        GEO_OPT
 GLOBAL| FFT library                                                       FFTW3
 GLOBAL| Diagonalization library                                            ELPA
 GLOBAL| DGEMM library                                                      SPLA
 GLOBAL| Minimum number of eigenvectors for ELPA usage                        16
 GLOBAL| Orthonormality check for eigenvectors                          DISABLED
 GLOBAL| Matrix multiplication library                                     COSMA
 GLOBAL| All-to-all communication in single precision                          F
 GLOBAL| FFTs using library dependent lengths                                  F
 GLOBAL| Grid backend                                                       AUTO
 GLOBAL| Global print level                                                  LOW
 GLOBAL| MPI I/O enabled                                                       T
 GLOBAL| Total number of message passing processes                             1
 GLOBAL| Number of threads for this process                                   16
 GLOBAL| This output is from process                                           0
 GLOBAL| OpenMP stack size per thread (OMP_STACKSIZE)                        16M
 GLOBAL| CPU model name                           Intel(R) Core(TM) Ultra 7 265K
 GLOBAL| CPUID                                                              1002
 GLOBAL| Compiled for CPUID                                                    0

 *** HINT in environment.F:928 :: The compiler target flags (generic) used ***
 *** to build this binary cannot exploit all extensions of this CPU model  ***
 *** (x86_avx2). Consider compiler target flags as part of FCFLAGS and     ***
 *** CFLAGS (ARCH file).                                                   ***


 MEMORY| system memory details [Kb]
 MEMORY|                        rank 0           min           max       average
 MEMORY| MemTotal             49330332      49330332      49330332      49330332
 MEMORY| MemFree              47720504      47720504      47720504      47720504
 MEMORY| Buffers                 36124         36124         36124         36124
 MEMORY| Cached                 724624        724624        724624        724624
 MEMORY| Slab                   113764        113764        113764        113764
 MEMORY| SReclaimable            41364         41364         41364         41364
 MEMORY| MemLikelyFree        48522616      48522616      48522616      48522616


 GENERATE|  Preliminary Number of Bonds generated:                             0
 GENERATE|  Achieved consistency in connectivity generation.

 *******************************************************************************
 *******************************************************************************
 **                                                                           **
 **     #####                         ##              ##                      **
 **    ##   ##            ##          ##              ##                      **
 **   ##     ##                       ##            ######                    **
 **   ##     ##  ##   ##  ##   #####  ##  ##   ####   ##    #####    #####    **
 **   ##     ##  ##   ##  ##  ##      ## ##   ##      ##   ##   ##  ##   ##   **
 **   ##  ## ##  ##   ##  ##  ##      ####     ###    ##   ######   ######    **
 **    ##  ###   ##   ##  ##  ##      ## ##      ##   ##   ##       ##        **
 **     #######   #####   ##   #####  ##  ##  ####    ##    #####   ##        **
 **           ##                                                    ##        **
 **                                                                           **
 **                                                ... make the atoms dance   **
 **                                                                           **
 **            Copyright (C) by CP2K developers group (2000-2025)             **
 **                      J. Chem. Phys. 152, 194103 (2020)                    **
 **                                                                           **
 *******************************************************************************


 TOTAL NUMBERS AND MAXIMUM NUMBERS

  Total number of            - Atomic kinds:                                   5
                             - Atoms:                                        387
                             - Shell sets:                                   387
                             - Shells:                                      2015
                             - Primitive Cartesian functions:               2031
                             - Cartesian basis functions:                   5338
                             - Spherical basis functions:                   4983

  Maximum angular momentum of- Orbital basis functions:                        2
                             - Local part of the GTH pseudopotential:          2
                             - Non-local part of the GTH pseudopotential:      3


 SCF PARAMETERS         Density guess:                                    ATOMIC
                        --------------------------------------------------------
                        max_scf:                                             100
                        max_scf_history:                                       0
                        max_diis:                                              4
                        --------------------------------------------------------
                        eps_scf:                                        1.00E-06
                        eps_scf_history:                                0.00E+00
                        eps_diis:                                       1.00E-01
                        eps_eigval:                                     1.00E-05
                        --------------------------------------------------------
                        level_shift [a.u.]:                             0.000000
                        --------------------------------------------------------
                        Outer loop SCF in use 
                        No variables optimised in outer loop
                        eps_scf                                         1.00E-06
                        max_scf                                               50
                        No outer loop optimization
                        step_size                                       5.00E-01

 *******************************************************************************
 ***                     STARTING GEOMETRY OPTIMIZATION                      ***
 ***                                 L-BFGS                                  ***
 *******************************************************************************

 --------------------------
 OPTIMIZATION STEP:      1
 --------------------------

 Number of electrons:                                                       2432
 Number of occupied orbitals:                                               1216
 Number of molecular orbitals:                                              1216

 Number of orbital functions:                                               4983
 Number of independent orbital functions:                                   4983

 Extrapolation method: initial_guess


 SCF WAVEFUNCTION OPTIMIZATION

  ----------------------------------- OT ---------------------------------------
  Minimizer      : DIIS                : direct inversion
                                         in the iterative subspace
                                         using   7 DIIS vectors
                                         safer DIIS on
  Preconditioner : FULL_SINGLE_INVERSE : inversion of 
                                         H + eS - 2*(Sc)(c^T*H*c+const)(Sc)^T
  Precond_solver : DEFAULT
  stepsize       :    0.08000000                  energy_gap     :    0.08000000
  eps_taylor     :   0.10000E-15                  max_taylor     :             4
  ----------------------------------- OT ---------------------------------------

  Step     Update method      Time    Convergence         Total energy    Change
  ------------------------------------------------------------------------------
     1 OT DIIS     0.80E-01   32.2     0.01601838     -6696.2607193634 -6.70E+03
     2 OT DIIS     0.80E-01   12.1     0.00999615     -6768.0321654615 -7.18E+01
     3 OT DIIS     0.80E-01   11.4     0.00772948     -6798.1777902816 -3.01E+01
     4 OT DIIS     0.80E-01   12.3     0.00797296     -6817.9502493521 -1.98E+01
     5 OT DIIS     0.80E-01   11.5     0.00424772     -6840.5432554324 -2.26E+01
     6 OT DIIS     0.80E-01   12.2     0.00347583     -6852.7081809124 -1.22E+01
     7 OT DIIS     0.80E-01   12.2     0.00279662     -6861.2858730085 -8.58E+00
     8 OT DIIS     0.80E-01   11.8     0.00227174     -6868.3197471106 -7.03E+00
     9 OT DIIS     0.80E-01   12.1     0.00184142     -6874.2995577601 -5.98E+00
    10 OT DIIS     0.80E-01   11.7     0.00147176     -6878.9582162978 -4.66E+00
    11 OT DIIS     0.80E-01   12.1     0.00115406     -6882.4781972933 -3.52E+00
    12 OT DIIS     0.80E-01   12.0     0.00092025     -6884.6583623190 -2.18E+00
    13 OT DIIS     0.80E-01   11.5     0.00076919     -6885.9661295796 -1.31E+00
    14 OT DIIS     0.80E-01   11.9     0.00065470     -6886.9376527670 -9.72E-01
    15 OT DIIS     0.80E-01   12.1     0.00053537     -6887.8454699278 -9.08E-01
    16 OT DIIS     0.80E-01   11.8     0.00045715     -6888.3960980899 -5.51E-01
    17 OT DIIS     0.80E-01   12.0     0.00039474     -6888.8373610457 -4.41E-01
    18 OT DIIS     0.80E-01   11.9     0.00035434     -6889.1167130682 -2.79E-01
    19 OT DIIS     0.80E-01   11.8     0.00031268     -6889.3880522653 -2.71E-01
    20 OT DIIS     0.80E-01   11.7     0.00026816     -6889.6470130413 -2.59E-01
    21 OT DIIS     0.80E-01   12.1     0.00023857     -6889.8269155675 -1.80E-01
    22 OT DIIS     0.80E-01   12.1     0.00021549     -6889.9622403000 -1.35E-01
    23 OT DIIS     0.80E-01   12.2     0.00019519     -6890.0803182606 -1.18E-01
    24 OT DIIS     0.80E-01   11.9     0.00017832     -6890.1800788334 -9.98E-02
    25 OT DIIS     0.80E-01   11.6     0.00016106     -6890.2710374972 -9.10E-02
    26 OT DIIS     0.80E-01   12.2     0.00014651     -6890.3481973757 -7.72E-02
    27 OT DIIS     0.80E-01   11.7     0.00013335     -6890.4163154530 -6.81E-02
    28 OT DIIS     0.80E-01   11.9     0.00012141     -6890.4737755263 -5.75E-02
    29 OT DIIS     0.80E-01   11.7     0.00011342     -6890.5121803337 -3.84E-02
    30 OT DIIS     0.80E-01   11.7     0.00010437     -6890.5574273090 -4.52E-02
    31 OT DIIS     0.80E-01   11.5     0.00009766     -6890.5919273394 -3.45E-02
    32 OT DIIS     0.80E-01   11.9     0.00009188     -6890.6179946303 -2.61E-02
    33 OT DIIS     0.80E-01   12.0     0.00008406     -6890.6557001319 -3.77E-02
    34 OT DIIS     0.80E-01   11.9     0.00007862     -6890.6810030922 -2.53E-02
    35 OT DIIS     0.80E-01   11.8     0.00007465     -6890.6997958626 -1.88E-02
    36 OT DIIS     0.80E-01   11.8     0.00007005     -6890.7183816442 -1.86E-02
    37 OT DIIS     0.80E-01   12.1     0.00006565     -6890.7378328006 -1.95E-02
    38 OT DIIS     0.80E-01   12.2     0.00006175     -6890.7554696587 -1.76E-02
    39 OT DIIS     0.80E-01   12.1     0.00005884     -6890.7663892384 -1.09E-02
    40 OT DIIS     0.80E-01   12.1     0.00005420     -6890.7848893863 -1.85E-02
    41 OT DIIS     0.80E-01   11.8     0.00005010     -6890.8009695159 -1.61E-02
    42 OT DIIS     0.80E-01   11.5     0.00004801     -6890.8095109461 -8.54E-03
    43 OT DIIS     0.80E-01   11.4     0.00004520     -6890.8184051957 -8.89E-03
    44 OT DIIS     0.80E-01   11.8     0.00004210     -6890.8300218826 -1.16E-02
    45 OT DIIS     0.80E-01   11.7     0.00003990     -6890.8377886646 -7.77E-03
    46 OT DIIS     0.80E-01   11.7     0.00003802     -6890.8448329311 -7.04E-03
    47 OT DIIS     0.80E-01   12.3     0.00003636     -6890.8517514850 -6.92E-03
    48 OT DIIS     0.80E-01   11.9     0.00003476     -6890.8588149608 -7.06E-03
    49 OT DIIS     0.80E-01   11.8     0.00003384     -6890.8638939281 -5.08E-03
    50 OT DIIS     0.80E-01   12.1     0.00003287     -6890.8672386755 -3.34E-03
    51 OT DIIS     0.80E-01   12.1     0.00003127     -6890.8750789070 -7.84E-03
    52 OT DIIS     0.80E-01   11.8     0.00002990     -6890.8810395788 -5.96E-03
    53 OT DIIS     0.80E-01   12.3     0.00002852     -6890.8859145929 -4.88E-03
    54 OT DIIS     0.80E-01   12.2     0.00002709     -6890.8916418241 -5.73E-03
    55 OT DIIS     0.80E-01   12.0     0.00002586     -6890.8966281357 -4.99E-03
    56 OT DIIS     0.80E-01   11.6     0.00002511     -6890.8996584086 -3.03E-03
    57 OT DIIS     0.80E-01   11.9     0.00002390     -6890.9027531841 -3.09E-03
    58 OT DIIS     0.80E-01   11.8     0.00002312     -6890.9053142583 -2.56E-03
    59 OT DIIS     0.80E-01   11.7     0.00002228     -6890.9081731122 -2.86E-03
    60 OT DIIS     0.80E-01   12.1     0.00002149     -6890.9111982074 -3.03E-03
    61 OT DIIS     0.80E-01   12.1     0.00002095     -6890.9134229494 -2.22E-03
    62 OT DIIS     0.80E-01   12.0     0.00002021     -6890.9162057211 -2.78E-03
    63 OT DIIS     0.80E-01   12.2     0.00001975     -6890.9182179840 -2.01E-03
    64 OT DIIS     0.80E-01   12.1     0.00001925     -6890.9203915438 -2.17E-03
    65 OT DIIS     0.80E-01   11.8     0.00001866     -6890.9229933526 -2.60E-03
    66 OT DIIS     0.80E-01   12.1     0.00001807     -6890.9257860760 -2.79E-03
    67 OT DIIS     0.80E-01   11.8     0.00001753     -6890.9283128506 -2.53E-03
    68 OT DIIS     0.80E-01   11.8     0.00001715     -6890.9302443292 -1.93E-03
    69 OT DIIS     0.80E-01   12.0     0.00001671     -6890.9323418790 -2.10E-03
    70 OT DIIS     0.80E-01   12.4     0.00001625     -6890.9349683435 -2.63E-03
    71 OT DIIS     0.80E-01   12.2     0.00001594     -6890.9367389425 -1.77E-03
    72 OT DIIS     0.80E-01   12.1     0.00001558     -6890.9385881076 -1.85E-03
    73 OT DIIS     0.80E-01   11.8     0.00001525     -6890.9413513903 -2.76E-03
    74 OT DIIS     0.80E-01   11.8     0.00001496     -6890.9428221098 -1.47E-03
    75 OT DIIS     0.80E-01   12.1     0.00001458     -6890.9451583730 -2.34E-03
    76 OT DIIS     0.80E-01   11.7     0.00001405     -6890.9479196923 -2.76E-03
    77 OT DIIS     0.80E-01   11.6     0.00001363     -6890.9502330081 -2.31E-03
    78 OT DIIS     0.80E-01   11.9     0.00001328     -6890.9515627225 -1.33E-03
    79 OT DIIS     0.80E-01   11.9     0.00001271     -6890.9539258493 -2.36E-03
    80 OT DIIS     0.80E-01   12.1     0.00001238     -6890.9558880155 -1.96E-03
    81 OT DIIS     0.80E-01   12.1     0.00001213     -6890.9566460679 -7.58E-04
    82 OT DIIS     0.80E-01   12.0     0.00001164     -6890.9584379633 -1.79E-03
    83 OT DIIS     0.80E-01   11.8     0.00001140     -6890.9598368298 -1.40E-03
    84 OT DIIS     0.80E-01   12.1     0.00001126     -6890.9609614223 -1.12E-03
    85 OT DIIS     0.80E-01   11.8     0.00001106     -6890.9618457716 -8.84E-04
    86 OT DIIS     0.80E-01   12.0     0.00001081     -6890.9623581425 -5.12E-04
    87 OT DIIS     0.80E-01   12.0     0.00001050     -6890.9632469192 -8.89E-04
    88 OT DIIS     0.80E-01   12.0     0.00001020     -6890.9641725616 -9.26E-04
    89 OT DIIS     0.80E-01   12.4     0.00001005     -6890.9650768615 -9.04E-04
    90 OT DIIS     0.80E-01   12.5     0.00000991     -6890.9657147720 -6.38E-04
    91 OT DIIS     0.80E-01   11.7     0.00000984     -6890.9661269379 -4.12E-04
    92 OT DIIS     0.80E-01   11.8     0.00000971     -6890.9669442381 -8.17E-04
    93 OT DIIS     0.80E-01   12.3     0.00000952     -6890.9678049159 -8.61E-04
    94 OT DIIS     0.80E-01   12.2     0.00000923     -6890.9693862217 -1.58E-03
    95 OT DIIS     0.80E-01   12.1     0.00000902     -6890.9699976290 -6.11E-04
    96 OT DIIS     0.80E-01   11.6     0.00000891     -6890.9706630066 -6.65E-04
    97 OT DIIS     0.80E-01   12.0     0.00000878     -6890.9712020553 -5.39E-04
    98 OT DIIS     0.80E-01   12.0     0.00000863     -6890.9719578198 -7.56E-04
    99 OT DIIS     0.80E-01   12.1     0.00000848     -6890.9726910843 -7.33E-04
   100 OT DIIS     0.80E-01   11.9     0.00000835     -6890.9733293909 -6.38E-04

  Leaving inner SCF loop after reaching   100 steps.


  Electronic density on regular grids:      -2432.0000000019       -0.0000000019
  Core density on regular grids:             2431.9999999988       -0.0000000012
  Total charge density on r-space grids:       -0.0000000031
  Total charge density g-space grids:          -0.0000000031

  Overlap energy of the core charge distribution:               0.02768975374740
  Self energy of the core charge distribution:             -16017.19408509233290
  Core Hamiltonian energy:                                   4324.15995197435586
  Hartree energy:                                            6130.48242317361746
  Exchange-correlation energy:                              -1326.72804702700319
  Dispersion energy:                                           -1.72126217326738

  Total energy:                                             -6890.97332939088210

  outer SCF iter =    1 RMS gradient =   0.83E-05 energy =      -6890.9733293909

  ----------------------------------- OT ---------------------------------------
  Minimizer      : DIIS                : direct inversion
                                         in the iterative subspace
                                         using   7 DIIS vectors
                                         safer DIIS on
  Preconditioner : FULL_SINGLE_INVERSE : inversion of 
                                         H + eS - 2*(Sc)(c^T*H*c+const)(Sc)^T
  Precond_solver : DEFAULT
  stepsize       :    0.08000000                  energy_gap     :    0.08000000
  eps_taylor     :   0.10000E-15                  max_taylor     :             4
  ----------------------------------- OT ---------------------------------------

  Step     Update method      Time    Convergence         Total energy    Change
  ------------------------------------------------------------------------------
     1 OT DIIS     0.80E-01   33.3     0.00010246     -6890.9738658644 -5.36E-04
     2 OT DIIS     0.80E-01   11.3     0.00012132     -6890.9770155267 -3.15E-03
     3 OT DIIS     0.80E-01   11.1     0.00012804     -6890.9779849460 -9.69E-04
     4 OT DIIS     0.80E-01   11.5     0.00010217     -6890.9794207663 -1.44E-03
     5 OT DIIS     0.80E-01   11.0     0.00008446     -6890.9813600272 -1.94E-03
     6 OT DIIS     0.80E-01   11.6     0.00007189     -6890.9824413241 -1.08E-03
     7 OT DIIS     0.80E-01   11.7     0.00006130     -6890.9837812887 -1.34E-03
     8 OT DIIS     0.80E-01   11.7     0.00005575     -6890.9849273507 -1.15E-03
     9 OT DIIS     0.80E-01   11.3     0.00004859     -6890.9858872657 -9.60E-04
    10 OT DIIS     0.80E-01   12.0     0.00005027     -6890.9868551050 -9.68E-04
    11 OT DIIS     0.80E-01   11.8     0.00004456     -6890.9881281335 -1.27E-03
    12 OT DIIS     0.80E-01   11.8     0.00004658     -6890.9892319909 -1.10E-03
    13 OT DIIS     0.80E-01   11.4     0.00004630     -6890.9903540328 -1.12E-03
    14 OT DIIS     0.80E-01   12.6     0.00004664     -6890.9914976472 -1.14E-03
    15 OT DIIS     0.80E-01   12.9     0.00004529     -6890.9922757946 -7.78E-04
    16 OT DIIS     0.80E-01   12.3     0.00004457     -6890.9930338587 -7.58E-04
    17 OT DIIS     0.80E-01   12.1     0.00004289     -6890.9937455876 -7.12E-04
    18 OT DIIS     0.80E-01   12.1     0.00004073     -6890.9948584933 -1.11E-03
    19 OT DIIS     0.80E-01   11.8     0.00004112     -6890.9949246419 -6.61E-05
    20 OT DIIS     0.80E-01   12.0     0.00004303     -6890.9954208291 -4.96E-04
    21 OT DIIS     0.80E-01   12.0     0.00003999     -6890.9959274131 -5.07E-04
    22 OT DIIS     0.80E-01   12.1     0.00004058     -6890.9959466376 -1.92E-05
    23 OT DIIS     0.80E-01   12.1     0.00003672     -6890.9961296165 -1.83E-04
    24 OT DIIS     0.80E-01   11.8     0.00003348     -6890.9962658178 -1.36E-04
    25 OT DIIS     0.80E-01   11.8     0.00003069     -6890.9964459338 -1.80E-04
    26 OT DIIS     0.80E-01   11.7     0.00002880     -6890.9966163220 -1.70E-04
    27 OT DIIS     0.80E-01   12.1     0.00002817     -6890.9967206878 -1.04E-04
    28 OT DIIS     0.80E-01   12.1     0.00002813     -6890.9969174891 -1.97E-04
    29 OT DIIS     0.80E-01   12.1     0.00002838     -6890.9971570776 -2.40E-04
    30 OT DIIS     0.80E-01   12.0     0.00003045     -6890.9972750587 -1.18E-04
    31 OT DIIS     0.80E-01   12.1     0.00003032     -6890.9974719905 -1.97E-04
    32 OT DIIS     0.80E-01   11.9     0.00003023     -6890.9976426206 -1.71E-04
    33 OT DIIS     0.80E-01   11.9     0.00002941     -6890.9978695576 -2.27E-04
    34 OT DIIS     0.80E-01   11.8     0.00002840     -6890.9979358076 -6.63E-05
    35 OT DIIS     0.80E-01   11.8     0.00002724     -6890.9980427707 -1.07E-04
    36 OT DIIS     0.80E-01   11.8     0.00002637     -6890.9981608348 -1.18E-04
    37 OT DIIS     0.80E-01   12.0     0.00002526     -6890.9983021048 -1.41E-04
    38 OT DIIS     0.80E-01   12.4     0.00002539     -6890.9983720896 -7.00E-05
    39 OT DIIS     0.80E-01   12.1     0.00002477     -6890.9984884929 -1.16E-04
    40 OT DIIS     0.80E-01   12.0     0.00002454     -6890.9986121591 -1.24E-04
    41 OT DIIS     0.80E-01   12.0     0.00002472     -6890.9988068101 -1.95E-04
    42 OT DIIS     0.80E-01   12.1     0.00002529     -6890.9988814158 -7.46E-05
    43 OT DIIS     0.80E-01   11.8     0.00002546     -6890.9990561518 -1.75E-04
    44 OT DIIS     0.80E-01   12.4     0.00002597     -6890.9991889071 -1.33E-04
    45 OT DIIS     0.80E-01   11.7     0.00002553     -6890.9993068505 -1.18E-04
    46 OT DIIS     0.80E-01   12.0     0.00002573     -6890.9993705266 -6.37E-05
    47 OT DIIS     0.80E-01   12.0     0.00002448     -6890.9994426128 -7.21E-05
    48 OT DIIS     0.80E-01   11.8     0.00002314     -6890.9995188686 -7.63E-05
    49 OT DIIS     0.80E-01   11.9     0.00002229     -6890.9996531319 -1.34E-04
    50 OT DIIS     0.80E-01   12.6     0.00002203     -6890.9996839864 -3.09E-05
    51 OT DIIS     0.80E-01   12.1     0.00002166     -6890.9998131042 -1.29E-04
    52 OT DIIS     0.80E-01   11.8     0.00002218     -6890.9999290816 -1.16E-04
    53 OT DIIS     0.80E-01   11.7     0.00002263     -6891.0000387692 -1.10E-04
    54 OT DIIS     0.80E-01   12.2     0.00002373     -6891.0001461386 -1.07E-04
    55 OT DIIS     0.80E-01   12.3     0.00002387     -6891.0002307848 -8.46E-05
    56 OT DIIS     0.80E-01   12.1     0.00002339     -6891.0003121334 -8.13E-05
    57 OT DIIS     0.80E-01   12.1     0.00002247     -6891.0004416070 -1.29E-04
    58 OT DIIS     0.80E-01   12.0     0.00002197     -6891.0004300704  1.15E-05
    59 OT DIIS     0.80E-01   12.6     0.00002070     -6891.0005327016 -1.03E-04
    60 OT DIIS     0.80E-01   12.1     0.00002039     -6891.0006082935 -7.56E-05
    61 OT DIIS     0.80E-01   11.5     0.00002003     -6891.0006731002 -6.48E-05
    62 OT DIIS     0.80E-01   12.1     0.00002025     -6891.0007594915 -8.64E-05
    63 OT DIIS     0.80E-01   11.7     0.00002047     -6891.0008344737 -7.50E-05
    64 OT DIIS     0.80E-01   11.9     0.00002072     -6891.0009213196 -8.68E-05
    65 OT DIIS     0.80E-01   12.2     0.00002071     -6891.0010486843 -1.27E-04
    66 OT DIIS     0.80E-01   11.6     0.00002141     -6891.0010641585 -1.55E-05
    67 OT DIIS     0.80E-01   12.1     0.00002062     -6891.0011749054 -1.11E-04
    68 OT DIIS     0.80E-01   12.1     0.00002061     -6891.0012441049 -6.92E-05
    69 OT DIIS     0.80E-01   12.0     0.00001995     -6891.0012765394 -3.24E-05
    70 OT DIIS     0.80E-01   12.1     0.00001945     -6891.0013444210 -6.79E-05
    71 OT DIIS     0.80E-01   11.9     0.00001888     -6891.0013914128 -4.70E-05
    72 OT DIIS     0.80E-01   12.0     0.00001848     -6891.0014498850 -5.85E-05
    73 OT DIIS     0.80E-01   12.2     0.00001817     -6891.0015380580 -8.82E-05
    74 OT DIIS     0.80E-01   12.2     0.00001871     -6891.0015726267 -3.46E-05
    75 OT DIIS     0.80E-01   12.0     0.00001849     -6891.0016732115 -1.01E-04
    76 OT DIIS     0.80E-01   11.6     0.00001919     -6891.0017590593 -8.58E-05
    77 OT DIIS     0.80E-01   12.1     0.00001944     -6891.0017962602 -3.72E-05
    78 OT DIIS     0.80E-01   12.0     0.00001948     -6891.0018706486 -7.44E-05
    79 OT DIIS     0.80E-01   12.0     0.00001911     -6891.0019105035 -3.99E-05
    80 OT DIIS     0.80E-01   12.2     0.00001847     -6891.0019546747 -4.42E-05
    81 OT DIIS     0.80E-01   12.1     0.00001748     -6891.0020168103 -6.21E-05
    82 OT DIIS     0.80E-01   12.0     0.00001731     -6891.0020383839 -2.16E-05
    83 OT DIIS     0.80E-01   12.0     0.00001664     -6891.0021053378 -6.70E-05
    84 OT DIIS     0.80E-01   12.3     0.00001686     -6891.0021741277 -6.88E-05
    85 OT DIIS     0.80E-01   12.0     0.00001716     -6891.0022136080 -3.95E-05
    86 OT DIIS     0.80E-01   12.2     0.00001752     -6891.0022893816 -7.58E-05
    87 OT DIIS     0.80E-01   12.2     0.00001792     -6891.0023454933 -5.61E-05
    88 OT DIIS     0.80E-01   11.6     0.00001810     -6891.0024005824 -5.51E-05
    89 OT DIIS     0.80E-01   12.0     0.00001746     -6891.0024515943 -5.10E-05
    90 OT DIIS     0.80E-01   11.9     0.00001750     -6891.0024737465 -2.22E-05
    91 OT DIIS     0.80E-01   11.8     0.00001642     -6891.0025224986 -4.88E-05
    92 OT DIIS     0.80E-01   11.8     0.00001612     -6891.0025761027 -5.36E-05
    93 OT DIIS     0.80E-01   12.1     0.00001584     -6891.0025983149 -2.22E-05
    94 OT DIIS     0.80E-01   12.1     0.00001563     -6891.0026519813 -5.37E-05
    95 OT DIIS     0.80E-01   12.1     0.00001572     -6891.0027003888 -4.84E-05
    96 OT DIIS     0.80E-01   11.8     0.00001602     -6891.0027553034 -5.49E-05
    97 OT DIIS     0.80E-01   11.6     0.00001600     -6891.0028037588 -4.85E-05
    98 OT DIIS     0.80E-01   12.2     0.00001664     -6891.0028506305 -4.69E-05
    99 OT DIIS     0.80E-01   11.9     0.00001618     -6891.0028979703 -4.73E-05
   100 OT DIIS     0.80E-01   12.1     0.00001618     -6891.0029519089 -5.39E-05

  Leaving inner SCF loop after reaching   100 steps.


  Electronic density on regular grids:      -2432.0000000020       -0.0000000020
  Core density on regular grids:             2431.9999999988       -0.0000000012
  Total charge density on r-space grids:       -0.0000000031
  Total charge density g-space grids:          -0.0000000031

  Overlap energy of the core charge distribution:               0.02768975374740
  Self energy of the core charge distribution:             -16017.19408509233290
  Core Hamiltonian energy:                                   4324.09324876581832
  Hartree energy:                                            6130.52479004831821
  Exchange-correlation energy:                              -1326.73333321120003
  Dispersion energy:                                           -1.72126217326738

  Total energy:                                             -6891.00295190891484

  outer SCF iter =    2 RMS gradient =   0.16E-04 energy =      -6891.0029519089

  ----------------------------------- OT ---------------------------------------
  Minimizer      : DIIS                : direct inversion
                                         in the iterative subspace
                                         using   7 DIIS vectors
                                         safer DIIS on
  Preconditioner : FULL_SINGLE_INVERSE : inversion of 
                                         H + eS - 2*(Sc)(c^T*H*c+const)(Sc)^T
  Precond_solver : DEFAULT
  stepsize       :    0.08000000                  energy_gap     :    0.08000000
  eps_taylor     :   0.10000E-15                  max_taylor     :             4
  ----------------------------------- OT ---------------------------------------

  Step     Update method      Time    Convergence         Total energy    Change
  ------------------------------------------------------------------------------
     1 OT DIIS     0.80E-01   32.7     0.00001608     -6891.0029629939 -1.11E-05
     2 OT DIIS     0.80E-01   11.1     0.00005226     -6891.0029642475 -1.25E-06
     3 OT DIIS     0.80E-01   11.4     0.00001433     -6891.0030650922 -1.01E-04
     4 OT DIIS     0.80E-01   11.3     0.00001339     -6891.0030886092 -2.35E-05
     5 OT DIIS     0.80E-01   12.3     0.00002031     -6891.0034741285 -3.86E-04
     6 OT DIIS     0.80E-01   12.2     0.00003602     -6891.0052258248 -1.75E-03
     7 OT DIIS     0.80E-01   11.8     0.00003113     -6891.0053499727 -1.24E-04
     8 OT DIIS     0.80E-01   11.1     0.00004043     -6891.0053694784 -1.95E-05
     9 OT DIIS     0.80E-01   12.6     0.00001665     -6891.0047655685  6.04E-04
    10 OT DIIS     0.80E-01   11.8     0.00001487     -6891.0053370671 -5.71E-04
    11 OT SD       0.80E-01   12.3     0.00001156     -6891.0055672988 -2.30E-04
    12 OT DIIS     0.80E-01   11.8     0.00002647     -6891.0055700734 -2.77E-06
    13 OT DIIS     0.80E-01   12.1     0.00000900     -6891.0055764509 -6.38E-06
    14 OT DIIS     0.80E-01   12.3     0.00000854     -6891.0055747682  1.68E-06
    15 OT DIIS     0.80E-01   12.1     0.00000845     -6891.0056563268 -8.16E-05
    16 OT SD       0.80E-01   12.3     0.00000834     -6891.0058720070 -2.16E-04
    17 OT DIIS     0.80E-01   12.1     0.00001606     -6891.0058846442 -1.26E-05
    18 OT SD       0.80E-01   11.7     0.00000768     -6891.0059912922 -1.07E-04
    19 OT DIIS     0.80E-01   11.9     0.00002454     -6891.0059891330  2.16E-06
    20 OT DIIS     0.80E-01   11.9     0.00000749     -6891.0060838294 -9.47E-05
    21 OT DIIS     0.80E-01   12.2     0.00000648     -6891.0061449826 -6.12E-05
    22 OT DIIS     0.80E-01   11.8     0.00000645     -6891.0062045429 -5.96E-05
    23 OT DIIS     0.80E-01   11.8     0.00000620     -6891.0062572671 -5.27E-05
    24 OT DIIS     0.80E-01   12.0     0.00000690     -6891.0062759849 -1.87E-05
    25 OT DIIS     0.80E-01   11.6     0.00000757     -6891.0062849030 -8.92E-06
    26 OT DIIS     0.80E-01   11.7     0.00000562     -6891.0063440924 -5.92E-05
    27 OT DIIS     0.80E-01   12.2     0.00000611     -6891.0064644005 -1.20E-04
    28 OT SD       0.80E-01   12.0     0.00000692     -6891.0064815901 -1.72E-05
    29 OT DIIS     0.80E-01   12.3     0.00002629     -6891.0064720299  9.56E-06
    30 OT SD       0.80E-01   11.8     0.00000630     -6891.0065177919 -4.58E-05
    31 OT DIIS     0.80E-01   12.0     0.00001893     -6891.0065172581  5.34E-07
    32 OT DIIS     0.80E-01   12.0     0.00000608     -6891.0065999641 -8.27E-05
    33 OT SD       0.80E-01   11.5     0.00000625     -6891.0066724547 -7.25E-05
    34 OT SD       0.80E-01   11.7     0.00001620     -6891.0066753384 -2.88E-06
    35 OT DIIS     0.80E-01   12.2     0.00008816     -6891.0064216574  2.54E-04
    36 OT DIIS     0.80E-01   12.3     0.00000505     -6891.0066876642 -2.66E-04
    37 OT SD       0.80E-01   11.9     0.00000518     -6891.0067407811 -5.31E-05
    38 OT DIIS     0.80E-01   12.3     0.00001139     -6891.0067470070 -6.23E-06
    39 OT DIIS     0.80E-01   11.9     0.00000539     -6891.0068179245 -7.09E-05
    40 OT SD       0.80E-01   11.9     0.00000565     -6891.0068889508 -7.10E-05
    41 OT DIIS     0.80E-01   12.0     0.00001883     -6891.0068868768  2.07E-06
    42 OT DIIS     0.80E-01   12.0     0.00000518     -6891.0068763912  1.05E-05
    43 OT DIIS     0.80E-01   11.2     0.00000446     -6891.0069882270 -1.12E-04
    44 OT DIIS     0.80E-01   11.9     0.00000527     -6891.0069931155 -4.89E-06
    45 OT DIIS     0.80E-01   11.9     0.00000480     -6891.0070216389 -2.85E-05
    46 OT DIIS     0.80E-01   11.9     0.00000460     -6891.0070787516 -5.71E-05
    47 OT SD       0.80E-01   11.9     0.00000548     -6891.0071726463 -9.39E-05
    48 OT SD       0.80E-01   12.2     0.00001051     -6891.0071767066 -4.06E-06
    49 OT DIIS     0.80E-01   11.8     0.00004853     -6891.0070985785  7.81E-05
    50 OT DIIS     0.80E-01   12.1     0.00000418     -6891.0071594381 -6.09E-05
    51 OT DIIS     0.80E-01   11.5     0.00000415     -6891.0072001612 -4.07E-05
    52 OT SD       0.80E-01   12.1     0.00000395     -6891.0072098322 -9.67E-06
    53 OT DIIS     0.80E-01   11.8     0.00000867     -6891.0072140407 -4.21E-06
    54 OT DIIS     0.80E-01   11.5     0.00000397     -6891.0072530542 -3.90E-05
    55 OT DIIS     0.80E-01   11.9     0.00000388     -6891.0072532363 -1.82E-07
    56 OT DIIS     0.80E-01   12.1     0.00000456     -6891.0073323817 -7.91E-05
    57 OT SD       0.80E-01   12.1     0.00000495     -6891.0074041663 -7.18E-05
    58 OT SD       0.80E-01   12.1     0.00001212     -6891.0074050948 -9.29E-07
    59 OT DIIS     0.80E-01   12.1     0.00006644     -6891.0072608803  1.44E-04
    60 OT DIIS     0.80E-01   12.3     0.00000359     -6891.0073954294 -1.35E-04
    61 OT SD       0.80E-01   12.0     0.00000389     -6891.0074379866 -4.26E-05
    62 OT DIIS     0.80E-01   12.5     0.00001150     -6891.0074382643 -2.78E-07
    63 OT DIIS     0.80E-01   12.0     0.00000354     -6891.0074463473 -8.08E-06
    64 OT SD       0.80E-01   12.1     0.00000356     -6891.0074712856 -2.49E-05
    65 OT DIIS     0.80E-01   12.1     0.00001106     -6891.0074716916 -4.06E-07
    66 OT DIIS     0.80E-01   11.8     0.00000347     -6891.0075076444 -3.60E-05
    67 OT DIIS     0.80E-01   11.9     0.00000396     -6891.0075730446 -6.54E-05
    68 OT SD       0.80E-01   12.5     0.00000463     -6891.0076287848 -5.57E-05
    69 OT SD       0.80E-01   11.9     0.00000853     -6891.0076303279 -1.54E-06
    70 OT DIIS     0.80E-01   12.1     0.00003856     -6891.0075805790  4.97E-05
    71 OT SD       0.80E-01   11.7     0.00000352     -6891.0076352181 -5.46E-05
    72 OT DIIS     0.80E-01   12.3     0.00001158     -6891.0076337542  1.46E-06
    73 OT DIIS     0.80E-01   12.1     0.00000302     -6891.0076535231 -1.98E-05
    74 OT SD       0.80E-01   12.2     0.00000288     -6891.0076676869 -1.42E-05
    75 OT DIIS     0.80E-01   11.9     0.00000691     -6891.0076692698 -1.58E-06
    76 OT DIIS     0.80E-01   12.0     0.00000286     -6891.0076897378 -2.05E-05
    77 OT SD       0.80E-01   12.0     0.00000346     -6891.0077464099 -5.67E-05
    78 OT SD       0.80E-01   12.5     0.00001022     -6891.0077455486  8.61E-07
    79 OT DIIS     0.80E-01   12.3     0.00005399     -6891.0076458174  9.97E-05
    80 OT DIIS     0.80E-01   12.3     0.00000300     -6891.0077832648 -1.37E-04
    81 OT SD       0.80E-01   12.2     0.00000352     -6891.0078168789 -3.36E-05
    82 OT SD       0.80E-01   12.0     0.00000665     -6891.0078180990 -1.22E-06
    83 OT DIIS     0.80E-01   12.0     0.00002886     -6891.0077901060  2.80E-05
    84 OT DIIS     0.80E-01   12.4     0.00000251     -6891.0078153682 -2.53E-05
    85 OT SD       0.80E-01   12.3     0.00000243     -6891.0078170253 -1.66E-06
    86 OT DIIS     0.80E-01   11.9     0.00000538     -6891.0078186279 -1.60E-06
    87 OT SD       0.80E-01   12.0     0.00000236     -6891.0078216917 -3.06E-06
    88 OT DIIS     0.80E-01   12.4     0.00000455     -6891.0078234788 -1.79E-06
    89 OT DIIS     0.80E-01   12.1     0.00000240     -6891.0078264202 -2.94E-06
    90 OT DIIS     0.80E-01   12.4     0.00000230     -6891.0078352035 -8.78E-06
    91 OT DIIS     0.80E-01   12.1     0.00000226     -6891.0078442427 -9.04E-06
    92 OT DIIS     0.80E-01   12.2     0.00000218     -6891.0078477918 -3.55E-06
    93 OT DIIS     0.80E-01   11.9     0.00000228     -6891.0078530021 -5.21E-06
    94 OT DIIS     0.80E-01   12.0     0.00000213     -6891.0078601130 -7.11E-06
    95 OT DIIS     0.80E-01   11.9     0.00000221     -6891.0078635994 -3.49E-06
    96 OT DIIS     0.80E-01   11.8     0.00000214     -6891.0078780800 -1.45E-05
    97 OT DIIS     0.80E-01   11.8     0.00000206     -6891.0078919505 -1.39E-05
    98 OT DIIS     0.80E-01   12.2     0.00000221     -6891.0078963701 -4.42E-06
    99 OT DIIS     0.80E-01   12.4     0.00000214     -6891.0079058913 -9.52E-06
   100 OT DIIS     0.80E-01   12.1     0.00000222     -6891.0079143919 -8.50E-06

  Leaving inner SCF loop after reaching   100 steps.


  Electronic density on regular grids:      -2432.0000000020       -0.0000000020
  Core density on regular grids:             2431.9999999988       -0.0000000012
  Total charge density on r-space grids:       -0.0000000031
  Total charge density g-space grids:          -0.0000000031

  Overlap energy of the core charge distribution:               0.02768975374740
  Self energy of the core charge distribution:             -16017.19408509233290
  Core Hamiltonian energy:                                   4324.08327493211073
  Hartree energy:                                            6130.53020938718055
  Exchange-correlation energy:                              -1326.73374119934533
  Dispersion energy:                                           -1.72126217326738

  Total energy:                                             -6891.00791439190652

  outer SCF iter =    3 RMS gradient =   0.22E-05 energy =      -6891.0079143919

  ----------------------------------- OT ---------------------------------------
  Minimizer      : DIIS                : direct inversion
                                         in the iterative subspace
                                         using   7 DIIS vectors
                                         safer DIIS on
  Preconditioner : FULL_SINGLE_INVERSE : inversion of 
                                         H + eS - 2*(Sc)(c^T*H*c+const)(Sc)^T
  Precond_solver : DEFAULT
  stepsize       :    0.08000000                  energy_gap     :    0.08000000
  eps_taylor     :   0.10000E-15                  max_taylor     :             4
  ----------------------------------- OT ---------------------------------------

  Step     Update method      Time    Convergence         Total energy    Change
  ------------------------------------------------------------------------------
     1 OT DIIS     0.80E-01   33.1     0.00000204     -6891.0079284640 -1.41E-05
     2 OT DIIS     0.80E-01   10.8     0.00000311     -6891.0079300808 -1.62E-06
     3 OT DIIS     0.80E-01   11.3     0.00000204     -6891.0079306440 -5.63E-07
     4 OT DIIS     0.80E-01   11.2     0.00000196     -6891.0079313040 -6.60E-07
     5 OT DIIS     0.80E-01   11.6     0.00000199     -6891.0079329715 -1.67E-06
     6 OT DIIS     0.80E-01   11.4     0.00000198     -6891.0079363744 -3.40E-06
     7 OT DIIS     0.80E-01   11.7     0.00000198     -6891.0079415380 -5.16E-06
     8 OT DIIS     0.80E-01   11.6     0.00000191     -6891.0079465449 -5.01E-06
     9 OT DIIS     0.80E-01   11.4     0.00000194     -6891.0079495579 -3.01E-06
    10 OT DIIS     0.80E-01   11.5     0.00000188     -6891.0079534537 -3.90E-06
    11 OT DIIS     0.80E-01   11.5     0.00000189     -6891.0079557442 -2.29E-06
    12 OT DIIS     0.80E-01   11.4     0.00000189     -6891.0079587684 -3.02E-06
    13 OT DIIS     0.80E-01   11.4     0.00000187     -6891.0079626094 -3.84E-06
    14 OT DIIS     0.80E-01   11.5     0.00000189     -6891.0079675206 -4.91E-06
    15 OT DIIS     0.80E-01   11.5     0.00000191     -6891.0079720544 -4.53E-06
    16 OT DIIS     0.80E-01   11.8     0.00000191     -6891.0079748441 -2.79E-06
    17 OT SD       0.80E-01   11.2     0.00000191     -6891.0079864975 -1.17E-05
    18 OT DIIS     0.80E-01   11.6     0.00000386     -6891.0079876349 -1.14E-06
    19 OT DIIS     0.80E-01   11.6     0.00000196     -6891.0080008373 -1.32E-05
    20 OT DIIS     0.80E-01   11.7     0.00000197     -6891.0080042839 -3.45E-06
    21 OT SD       0.80E-01   11.5     0.00000190     -6891.0080123589 -8.07E-06
    22 OT DIIS     0.80E-01   11.9     0.00000429     -6891.0080133112 -9.52E-07
    23 OT DIIS     0.80E-01   11.8     0.00000196     -6891.0080295464 -1.62E-05
    24 OT SD       0.80E-01   11.7     0.00000200     -6891.0080650358 -3.55E-05
    25 OT SD       0.80E-01   11.3     0.00000392     -6891.0080659914 -9.56E-07
    26 OT DIIS     0.80E-01   11.6     0.00001856     -6891.0080551136  1.09E-05
    27 OT DIIS     0.80E-01   11.4     0.00000180     -6891.0080707939 -1.57E-05
    28 OT SD       0.80E-01   11.3     0.00000182     -6891.0080899275 -1.91E-05
    29 OT DIIS     0.80E-01   11.5     0.00000294     -6891.0080910551 -1.13E-06
    30 OT DIIS     0.80E-01   12.4     0.00000184     -6891.0081041225 -1.31E-05
    31 OT SD       0.80E-01   11.8     0.00000235     -6891.0081443809 -4.03E-05
    32 OT SD       0.80E-01   12.2     0.00000683     -6891.0081440905  2.90E-07
    33 OT DIIS     0.80E-01   12.1     0.00003662     -6891.0080987097  4.54E-05
    34 OT DIIS     0.80E-01   12.3     0.00000198     -6891.0081425773 -4.39E-05
    35 OT SD       0.80E-01   12.0     0.00000176     -6891.0081516559 -9.08E-06
    36 OT SD       0.80E-01   11.7     0.00000401     -6891.0081523786 -7.23E-07
    37 OT DIIS     0.80E-01   12.2     0.00002105     -6891.0081384284  1.40E-05
    38 OT SD       0.80E-01   12.2     0.00000168     -6891.0081597161 -2.13E-05
    39 OT DIIS     0.80E-01   12.4     0.00000394     -6891.0081604187 -7.03E-07
    40 OT DIIS     0.80E-01   12.3     0.00000173     -6891.0081698172 -9.40E-06
    41 OT DIIS     0.80E-01   12.0     0.00000175     -6891.0081818183 -1.20E-05
    42 OT SD       0.80E-01   12.2     0.00000156     -6891.0081898178 -8.00E-06
    43 OT DIIS     0.80E-01   12.3     0.00000258     -6891.0081907137 -8.96E-07
    44 OT DIIS     0.80E-01   12.0     0.00000155     -6891.0081980604 -7.35E-06
    45 OT DIIS     0.80E-01   12.1     0.00000153     -6891.0082075453 -9.48E-06
    46 OT DIIS     0.80E-01   12.1     0.00000155     -6891.0082080384 -4.93E-07
    47 OT DIIS     0.80E-01   11.9     0.00000153     -6891.0082237825 -1.57E-05
    48 OT SD       0.80E-01   12.4     0.00000152     -6891.0082331956 -9.41E-06
    49 OT SD       0.80E-01   11.6     0.00000241     -6891.0082340639 -8.68E-07
    50 OT DIIS     0.80E-01   11.8     0.00001118     -6891.0082308744  3.19E-06
    51 OT DIIS     0.80E-01   12.3     0.00000146     -6891.0082416998 -1.08E-05
    52 OT SD       0.80E-01   11.9     0.00000147     -6891.0082485553 -6.86E-06
    53 OT DIIS     0.80E-01   12.3     0.00000213     -6891.0082494242 -8.69E-07
    54 OT DIIS     0.80E-01   12.0     0.00000154     -6891.0082689757 -1.96E-05
    55 OT SD       0.80E-01   12.1     0.00000164     -6891.0082836408 -1.47E-05
    56 OT SD       0.80E-01   12.1     0.00000286     -6891.0082843460 -7.05E-07
    57 OT DIIS     0.80E-01   11.9     0.00001267     -6891.0082794738  4.87E-06
    58 OT DIIS     0.80E-01   12.3     0.00000145     -6891.0082869413 -7.47E-06
    59 OT SD       0.80E-01   12.0     0.00000153     -6891.0082904096 -3.47E-06
    60 OT DIIS     0.80E-01   12.1     0.00000433     -6891.0082907361 -3.26E-07
    61 OT DIIS     0.80E-01   12.2     0.00000137     -6891.0082954601 -4.72E-06
    62 OT SD       0.80E-01   11.8     0.00000154     -6891.0083087950 -1.33E-05
    63 OT DIIS     0.80E-01   11.8     0.00000441     -6891.0083090147 -2.20E-07
    64 OT DIIS     0.80E-01   12.2     0.00000143     -6891.0083209313 -1.19E-05
    65 OT SD       0.80E-01   12.0     0.00000174     -6891.0083441937 -2.33E-05
    66 OT SD       0.80E-01   12.0     0.00000405     -6891.0083444709 -2.77E-07
    67 OT DIIS     0.80E-01   11.9     0.00002081     -6891.0083301157  1.44E-05
    68 OT DIIS     0.80E-01   12.0     0.00000149     -6891.0083510726 -2.10E-05
    69 OT SD       0.80E-01   11.8     0.00000143     -6891.0083549043 -3.83E-06
    70 OT DIIS     0.80E-01   12.0     0.00000339     -6891.0083553075 -4.03E-07
    71 OT DIIS     0.80E-01   12.1     0.00000133     -6891.0083559735 -6.66E-07
    72 OT SD       0.80E-01   12.2     0.00000130     -6891.0083646364 -8.66E-06
    73 OT DIIS     0.80E-01   11.8     0.00000262     -6891.0083651886 -5.52E-07
    74 OT DIIS     0.80E-01   12.2     0.00000138     -6891.0083819651 -1.68E-05
    75 OT DIIS     0.80E-01   12.2     0.00000276     -6891.0084128045 -3.08E-05
    76 OT SD       0.80E-01   12.1     0.00000288     -6891.0084157316 -2.93E-06
    77 OT SD       0.80E-01   11.7     0.00000479     -6891.0084156382  9.34E-08
    78 OT SD       0.80E-01   12.3     0.00001566     -6891.0084062867  9.35E-06
    79 OT DIIS     0.80E-01   12.0     0.00007790     -6891.0081871895  2.19E-04
    80 OT DIIS     0.80E-01   12.0     0.00000130     -6891.0084070920 -2.20E-04
    81 OT DIIS     0.80E-01   12.1     0.00000123     -6891.0084074293 -3.37E-07
    82 OT SD       0.80E-01   12.1     0.00000119     -6891.0084091869 -1.76E-06
    83 OT DIIS     0.80E-01   11.9     0.00000171     -6891.0084097722 -5.85E-07
    84 OT DIIS     0.80E-01   11.9     0.00000119     -6891.0084099427 -1.71E-07
    85 OT DIIS     0.80E-01   12.1     0.00000116     -6891.0084122236 -2.28E-06
    86 OT DIIS     0.80E-01   11.8     0.00000119     -6891.0084126571 -4.34E-07
    87 OT DIIS     0.80E-01   11.6     0.00000120     -6891.0084170269 -4.37E-06
    88 OT DIIS     0.80E-01   12.5     0.00000119     -6891.0084197794 -2.75E-06
    89 OT SD       0.80E-01   11.8     0.00000114     -6891.0084229058 -3.13E-06
    90 OT DIIS     0.80E-01   12.5     0.00000152     -6891.0084234754 -5.70E-07
    91 OT DIIS     0.80E-01   12.0     0.00000115     -6891.0084250765 -1.60E-06
    92 OT DIIS     0.80E-01   12.1     0.00000114     -6891.0084275079 -2.43E-06
    93 OT DIIS     0.80E-01   11.9     0.00000116     -6891.0084277028 -1.95E-07
    94 OT DIIS     0.80E-01   12.0     0.00000115     -6891.0084317700 -4.07E-06
    95 OT DIIS     0.80E-01   11.8     0.00000119     -6891.0084353571 -3.59E-06
    96 OT SD       0.80E-01   12.0     0.00000120     -6891.0084436138 -8.26E-06
    97 OT SD       0.80E-01   12.1     0.00000284     -6891.0084439556 -3.42E-07
    98 OT DIIS     0.80E-01   12.4     0.00001547     -6891.0084364659  7.49E-06
    99 OT DIIS     0.80E-01   12.1     0.00000114     -6891.0084504387 -1.40E-05
   100 OT DIIS     0.80E-01   12.0     0.00000114     -6891.0084508411 -4.02E-07

  Leaving inner SCF loop after reaching   100 steps.


  Electronic density on regular grids:      -2432.0000000020       -0.0000000020
  Core density on regular grids:             2431.9999999988       -0.0000000012
  Total charge density on r-space grids:       -0.0000000032
  Total charge density g-space grids:          -0.0000000032

  Overlap energy of the core charge distribution:               0.02768975374740
  Self energy of the core charge distribution:             -16017.19408509233290
  Core Hamiltonian energy:                                   4324.07825822636551
  Hartree energy:                                            6130.53320461354360
  Exchange-correlation energy:                              -1326.73225616918307
  Dispersion energy:                                           -1.72126217326738

  Total energy:                                             -6891.00845084112552

  outer SCF iter =    4 RMS gradient =   0.11E-05 energy =      -6891.0084508411

  ----------------------------------- OT ---------------------------------------
  Minimizer      : DIIS                : direct inversion
                                         in the iterative subspace
                                         using   7 DIIS vectors
                                         safer DIIS on
  Preconditioner : FULL_SINGLE_INVERSE : inversion of 
                                         H + eS - 2*(Sc)(c^T*H*c+const)(Sc)^T
  Precond_solver : DEFAULT
  stepsize       :    0.08000000                  energy_gap     :    0.08000000
  eps_taylor     :   0.10000E-15                  max_taylor     :             4
  ----------------------------------- OT ---------------------------------------

  Step     Update method      Time    Convergence         Total energy    Change
  ------------------------------------------------------------------------------
     1 OT DIIS     0.80E-01   32.5     0.00000116     -6891.0084549155 -4.07E-06
     2 OT DIIS     0.80E-01   11.3     0.00000251     -6891.0084553012 -3.86E-07
     3 OT DIIS     0.80E-01   11.2     0.00000110     -6891.0084555674 -2.66E-07
     4 OT DIIS     0.80E-01   11.1     0.00000109     -6891.0084557795 -2.12E-07
     5 OT DIIS     0.80E-01   11.1     0.00000108     -6891.0084559996 -2.20E-07
     6 OT DIIS     0.80E-01   10.9     0.00000109     -6891.0084567465 -7.47E-07
     7 OT DIIS     0.80E-01   11.7     0.00000107     -6891.0084581921 -1.45E-06
     8 OT DIIS     0.80E-01   11.4     0.00000108     -6891.0084608179 -2.63E-06
     9 OT DIIS     0.80E-01   11.2     0.00000109     -6891.0084614185 -6.01E-07
    10 OT DIIS     0.80E-01   11.3     0.00000107     -6891.0084642792 -2.86E-06
    11 OT DIIS     0.80E-01   11.5     0.00000106     -6891.0084657278 -1.45E-06
    12 OT DIIS     0.80E-01   11.3     0.00000107     -6891.0084667958 -1.07E-06
    13 OT DIIS     0.80E-01   11.6     0.00000107     -6891.0084680396 -1.24E-06
    14 OT DIIS     0.80E-01   11.7     0.00000106     -6891.0084695511 -1.51E-06
    15 OT DIIS     0.80E-01   12.0     0.00000106     -6891.0084709011 -1.35E-06
    16 OT DIIS     0.80E-01   11.5     0.00000106     -6891.0084724040 -1.50E-06
    17 OT SD       0.80E-01   11.2     0.00000106     -6891.0084760503 -3.65E-06
    18 OT DIIS     0.80E-01   11.7     0.00000156     -6891.0084765295 -4.79E-07
    19 OT DIIS     0.80E-01   11.6     0.00000106     -6891.0084797382 -3.21E-06
    20 OT DIIS     0.80E-01   11.5     0.00000106     -6891.0084823576 -2.62E-06
    21 OT SD       0.80E-01   11.7     0.00000106     -6891.0084862753 -3.92E-06
    22 OT DIIS     0.80E-01   11.8     0.00000176     -6891.0084867237 -4.48E-07
    23 OT DIIS     0.80E-01   11.6     0.00000104     -6891.0084915372 -4.81E-06
    24 OT SD       0.80E-01   11.4     0.00000107     -6891.0084987288 -7.19E-06
    25 OT DIIS     0.80E-01   11.8     0.00000159     -6891.0084991805 -4.52E-07
    26 OT DIIS     0.80E-01   11.5     0.00000105     -6891.0084993927 -2.12E-07
    27 OT DIIS     0.80E-01   11.4     0.00000117     -6891.0085099652 -1.06E-05
    28 OT SD       0.80E-01   12.0     0.00000169     -6891.0085267556 -1.68E-05
    29 OT SD       0.80E-01   11.1     0.00000292     -6891.0085269876 -2.32E-07
    30 OT SD       0.80E-01   11.0     0.00001091     -6891.0085228540  4.13E-06
    31 OT DIIS     0.80E-01   11.8     0.00005743     -6891.0084064299  1.16E-04
    32 OT DIIS     0.80E-01   11.5     0.00000114     -6891.0085183112 -1.12E-04
    33 OT DIIS     0.80E-01   11.5     0.00000115     -6891.0085234671 -5.16E-06
    34 OT SD       0.80E-01   11.5     0.00000121     -6891.0085379625 -1.45E-05
    35 OT SD       0.80E-01   11.4     0.00000295     -6891.0085381569 -1.94E-07
    36 OT DIIS     0.80E-01   12.0     0.00001501     -6891.0085306186  7.54E-06
    37 OT DIIS     0.80E-01   11.6     0.00000103     -6891.0085319250 -1.31E-06
    38 OT DIIS     0.80E-01   12.0     0.00000100     -6891.0085333240 -1.40E-06
    39 OT DIIS     0.80E-01   11.4     0.00000101     -6891.0085346252 -1.30E-06
    40 OT SD       0.80E-01   11.5     0.00000100     -6891.0085347703 -1.45E-07

  *** SCF run converged in    40 steps ***


  Electronic density on regular grids:      -2432.0000000057       -0.0000000057
  Core density on regular grids:             2431.9999999988       -0.0000000012
  Total charge density on r-space grids:       -0.0000000068
  Total charge density g-space grids:          -0.0000000068

  Overlap energy of the core charge distribution:               0.02768975374740
  Self energy of the core charge distribution:             -16017.19408509233290
  Core Hamiltonian energy:                                   4324.07738040194454
  Hartree energy:                                            6130.53361663836858
  Exchange-correlation energy:                              -1326.73187429880795
  Dispersion energy:                                           -1.72126217326738

  Total energy:                                             -6891.00853477034707

  outer SCF iter =    5 RMS gradient =   0.10E-05 energy =      -6891.0085347703
  outer SCF loop converged in   5 iterations or  440 steps


 ENERGY| Total FORCE_EVAL ( QS ) energy [hartree]          -6891.008535186148038

 Number of electrons:                                                       2432
 Number of occupied orbitals:                                               1216
 Number of molecular orbitals:                                              1216

 Number of orbital functions:                                               4983
 Number of independent orbital functions:                                   4983

 Extrapolation method: ASPC


 SCF WAVEFUNCTION OPTIMIZATION

  ----------------------------------- OT ---------------------------------------
  Minimizer      : DIIS                : direct inversion
                                         in the iterative subspace
                                         using   7 DIIS vectors
                                         safer DIIS on
  Preconditioner : FULL_SINGLE_INVERSE : inversion of 
                                         H + eS - 2*(Sc)(c^T*H*c+const)(Sc)^T
  Precond_solver : DEFAULT
  stepsize       :    0.08000000                  energy_gap     :    0.08000000
  eps_taylor     :   0.10000E-15                  max_taylor     :             4
  ----------------------------------- OT ---------------------------------------

  Step     Update method      Time    Convergence         Total energy    Change
  ------------------------------------------------------------------------------
     1 OT DIIS     0.80E-01   19.8     0.00514176     -6891.5922769241 -6.89E+03
     2 OT DIIS     0.80E-01   11.9     0.00359795     -6901.6879299844 -1.01E+01
     3 OT DIIS     0.80E-01   12.0     0.00323698     -6906.5652706829 -4.88E+00
     4 OT DIIS     0.80E-01   12.1     0.00192108     -6908.8305864524 -2.27E+00
     5 OT DIIS     0.80E-01   12.0     0.00163940     -6909.4249864409 -5.94E-01
     6 OT DIIS     0.80E-01   12.3     0.00141333     -6909.6398339834 -2.15E-01
     7 OT DIIS     0.80E-01   11.9     0.00066162     -6909.8075211038 -1.68E-01
     8 OT DIIS     0.80E-01   11.9     0.00055250     -6909.9027568165 -9.52E-02
     9 OT DIIS     0.80E-01   12.1     0.00042379     -6909.9575572174 -5.48E-02
    10 OT DIIS     0.80E-01   11.8     0.00033876     -6909.9991374083 -4.16E-02
    11 OT DIIS     0.80E-01   12.3     0.00024960     -6910.0415643268 -4.24E-02
    12 OT DIIS     0.80E-01   12.3     0.00023354     -6910.0628010011 -2.12E-02
    13 OT DIIS     0.80E-01   11.9     0.00020906     -6910.0917510074 -2.90E-02
    14 OT DIIS     0.80E-01   11.9     0.00019848     -6910.1176920676 -2.59E-02
    15 OT DIIS     0.80E-01   12.5     0.00020339     -6910.1438903680 -2.62E-02
    16 OT DIIS     0.80E-01   12.0     0.00016963     -6910.1664935019 -2.26E-02
    17 OT DIIS     0.80E-01   11.8     0.00015470     -6910.1761782846 -9.68E-03
    18 OT DIIS     0.80E-01   12.3     0.00013914     -6910.1928837662 -1.67E-02
    19 OT DIIS     0.80E-01   12.4     0.00013080     -6910.2102510445 -1.74E-02
    20 OT DIIS     0.80E-01   12.5     0.00011888     -6910.2218121380 -1.16E-02
    21 OT DIIS     0.80E-01   12.4     0.00011033     -6910.2324507016 -1.06E-02
    22 OT DIIS     0.80E-01   12.3     0.00009250     -6910.2386020187 -6.15E-03
    23 OT DIIS     0.80E-01   12.2     0.00008682     -6910.2455664558 -6.96E-03
    24 OT DIIS     0.80E-01   12.1     0.00008200     -6910.2540882676 -8.52E-03
    25 OT DIIS     0.80E-01   12.2     0.00008373     -6910.2598045311 -5.72E-03
    26 OT DIIS     0.80E-01   12.4     0.00007277     -6910.2649378810 -5.13E-03
    27 OT DIIS     0.80E-01   11.9     0.00006166     -6910.2666030700 -1.67E-03
    28 OT DIIS     0.80E-01   12.4     0.00005708     -6910.2682784041 -1.68E-03
    29 OT DIIS     0.80E-01   12.0     0.00005507     -6910.2708302723 -2.55E-03
    30 OT DIIS     0.80E-01   12.1     0.00004693     -6910.2725135181 -1.68E-03
    31 OT DIIS     0.80E-01   12.1     0.00004216     -6910.2754325179 -2.92E-03
    32 OT DIIS     0.80E-01   12.9     0.00004150     -6910.2784768625 -3.04E-03
    33 OT DIIS     0.80E-01   12.2     0.00003588     -6910.2801855271 -1.71E-03
    34 OT DIIS     0.80E-01   11.7     0.00003320     -6910.2811747742 -9.89E-04
    35 OT DIIS     0.80E-01   12.3     0.00003297     -6910.2818903304 -7.16E-04
    36 OT DIIS     0.80E-01   12.2     0.00003049     -6910.2827428423 -8.53E-04
    37 OT DIIS     0.80E-01   12.3     0.00002787     -6910.2844779531 -1.74E-03
    38 OT DIIS     0.80E-01   12.3     0.00002766     -6910.2851454629 -6.68E-04
    39 OT DIIS     0.80E-01   12.1     0.00002407     -6910.2867855700 -1.64E-03
    40 OT DIIS     0.80E-01   12.1     0.00002347     -6910.2873567820 -5.71E-04
    41 OT DIIS     0.80E-01   11.9     0.00002262     -6910.2878900511 -5.33E-04
    42 OT DIIS     0.80E-01   12.0     0.00002219     -6910.2883321006 -4.42E-04
    43 OT DIIS     0.80E-01   12.3     0.00002246     -6910.2891668818 -8.35E-04
    44 OT DIIS     0.80E-01   12.0     0.00002121     -6910.2901254905 -9.59E-04
    45 OT DIIS     0.80E-01   12.8     0.00002071     -6910.2910599206 -9.34E-04
    46 OT DIIS     0.80E-01   11.2     0.00001938     -6910.2913588150 -2.99E-04
    47 OT DIIS     0.80E-01   11.8     0.00001825     -6910.2916396624 -2.81E-04
    48 OT DIIS     0.80E-01   12.0     0.00001839     -6910.2922694909 -6.30E-04
    49 OT DIIS     0.80E-01   12.0     0.00001773     -6910.2931337184 -8.64E-04
    50 OT DIIS     0.80E-01   11.9     0.00001795     -6910.2937768627 -6.43E-04
    51 OT DIIS     0.80E-01   12.3     0.00001699     -6910.2944558997 -6.79E-04
    52 OT DIIS     0.80E-01   11.7     0.00001615     -6910.2946554462 -2.00E-04
    53 OT DIIS     0.80E-01   11.7     0.00001562     -6910.2946515216  3.92E-06
    54 OT DIIS     0.80E-01   12.0     0.00001695     -6910.2948655005 -2.14E-04
    55 OT DIIS     0.80E-01   12.4     0.00001467     -6910.2954501181 -5.85E-04
    56 OT DIIS     0.80E-01   12.1     0.00001548     -6910.2960779483 -6.28E-04
    57 OT DIIS     0.80E-01   12.1     0.00001401     -6910.2966523449 -5.74E-04
    58 OT DIIS     0.80E-01   12.1     0.00001374     -6910.2971576373 -5.05E-04
    59 OT DIIS     0.80E-01   11.9     0.00001336     -6910.2974305312 -2.73E-04
    60 OT DIIS     0.80E-01   12.6     0.00001258     -6910.2976178394 -1.87E-04
    61 OT DIIS     0.80E-01   12.4     0.00001215     -6910.2978372744 -2.19E-04
    62 OT DIIS     0.80E-01   12.2     0.00001263     -6910.2982172411 -3.80E-04
    63 OT DIIS     0.80E-01   11.9     0.00001201     -6910.2985635271 -3.46E-04
    64 OT DIIS     0.80E-01   12.1     0.00001146     -6910.2987767872 -2.13E-04
    65 OT DIIS     0.80E-01   11.8     0.00001114     -6910.2989915003 -2.15E-04
    66 OT DIIS     0.80E-01   12.3     0.00001106     -6910.2991514127 -1.60E-04
    67 OT DIIS     0.80E-01   12.1     0.00001140     -6910.2994557619 -3.04E-04
    68 OT DIIS     0.80E-01   12.4     0.00001074     -6910.2997947085 -3.39E-04
    69 OT DIIS     0.80E-01   11.9     0.00001077     -6910.3001056940 -3.11E-04
    70 OT DIIS     0.80E-01   12.1     0.00001007     -6910.3004373050 -3.32E-04
    71 OT DIIS     0.80E-01   12.3     0.00000999     -6910.3005560948 -1.19E-04
    72 OT DIIS     0.80E-01   12.2     0.00000980     -6910.3006203779 -6.43E-05
    73 OT DIIS     0.80E-01   11.9     0.00000970     -6910.3008651884 -2.45E-04
    74 OT DIIS     0.80E-01   12.0     0.00000951     -6910.3010136770 -1.48E-04
    75 OT DIIS     0.80E-01   12.3     0.00000937     -6910.3012530257 -2.39E-04
    76 OT DIIS     0.80E-01   11.7     0.00000920     -6910.3014611937 -2.08E-04
    77 OT DIIS     0.80E-01   11.9     0.00000935     -6910.3017253813 -2.64E-04
    78 OT DIIS     0.80E-01   12.0     0.00000890     -6910.3020662497 -3.41E-04
    79 OT DIIS     0.80E-01   12.2     0.00000871     -6910.3021329377 -6.67E-05
    80 OT DIIS     0.80E-01   12.2     0.00000885     -6910.3022715336 -1.39E-04
    81 OT DIIS     0.80E-01   12.0     0.00000878     -6910.3025154405 -2.44E-04
    82 OT DIIS     0.80E-01   12.5     0.00000828     -6910.3029056812 -3.90E-04
    83 OT DIIS     0.80E-01   12.4     0.00000854     -6910.3031166910 -2.11E-04
    84 OT DIIS     0.80E-01   12.0     0.00000814     -6910.3033248190 -2.08E-04
    85 OT DIIS     0.80E-01   12.2     0.00000785     -6910.3034645331 -1.40E-04
    86 OT DIIS     0.80E-01   12.8     0.00000768     -6910.3036387978 -1.74E-04
    87 OT DIIS     0.80E-01   12.3     0.00000769     -6910.3038280636 -1.89E-04
    88 OT DIIS     0.80E-01   12.8     0.00000758     -6910.3039598885 -1.32E-04
    89 OT DIIS     0.80E-01   11.9     0.00000725     -6910.3040897516 -1.30E-04
    90 OT DIIS     0.80E-01   12.1     0.00000698     -6910.3042125001 -1.23E-04
    91 OT DIIS     0.80E-01   12.6     0.00000688     -6910.3043175369 -1.05E-04
    92 OT DIIS     0.80E-01   11.9     0.00000677     -6910.3044296981 -1.12E-04
    93 OT DIIS     0.80E-01   11.9     0.00000664     -6910.3044946410 -6.49E-05
    94 OT DIIS     0.80E-01   12.3     0.00000657     -6910.3045482288 -5.36E-05
    95 OT DIIS     0.80E-01   12.0     0.00000647     -6910.3046461838 -9.80E-05
    96 OT DIIS     0.80E-01   12.1     0.00000620     -6910.3049009592 -2.55E-04
    97 OT DIIS     0.80E-01   12.1     0.00000645     -6910.3049368882 -3.59E-05
    98 OT DIIS     0.80E-01   11.9     0.00000600     -6910.3050441919 -1.07E-04
    99 OT DIIS     0.80E-01   12.3     0.00000598     -6910.3051053911 -6.12E-05
   100 OT DIIS     0.80E-01   11.9     0.00000602     -6910.3051339876 -2.86E-05

  Leaving inner SCF loop after reaching   100 steps.


  Electronic density on regular grids:      -2431.9999999928        0.0000000072
  Core density on regular grids:             2431.9999999988       -0.0000000012
  Total charge density on r-space grids:        0.0000000060
  Total charge density g-space grids:           0.0000000060

  Overlap energy of the core charge distribution:               0.00558503018225
  Self energy of the core charge distribution:             -16017.19408509233290
  Core Hamiltonian energy:                                   4282.85834408655865
  Hartree energy:                                            6148.00751625107478
  Exchange-correlation energy:                              -1322.26220904194929
  Dispersion energy:                                           -1.72028522112694

  Total energy:                                             -6910.30513398759376

  outer SCF iter =    1 RMS gradient =   0.60E-05 energy =      -6910.3051339876

  ----------------------------------- OT ---------------------------------------
  Minimizer      : DIIS                : direct inversion
                                         in the iterative subspace
                                         using   7 DIIS vectors
                                         safer DIIS on
  Preconditioner : FULL_SINGLE_INVERSE : inversion of 
                                         H + eS - 2*(Sc)(c^T*H*c+const)(Sc)^T
  Precond_solver : DEFAULT
  stepsize       :    0.08000000                  energy_gap     :    0.08000000
  eps_taylor     :   0.10000E-15                  max_taylor     :             4
  ----------------------------------- OT ---------------------------------------

  Step     Update method      Time    Convergence         Total energy    Change
  ------------------------------------------------------------------------------
     1 OT DIIS     0.80E-01   34.2     0.00001514     -6910.3052766753 -1.43E-04
     2 OT DIIS     0.80E-01   11.6     0.00001419     -6910.3053795524 -1.03E-04
     3 OT DIIS     0.80E-01   11.4     0.00001671     -6910.3054514843 -7.19E-05
     4 OT DIIS     0.80E-01   11.6     0.00001540     -6910.3055346520 -8.32E-05
     5 OT DIIS     0.80E-01   11.5     0.00001347     -6910.3056512130 -1.17E-04
     6 OT DIIS     0.80E-01   11.2     0.00001282     -6910.3057407377 -8.95E-05
     7 OT DIIS     0.80E-01   11.2     0.00001285     -6910.3058221344 -8.14E-05
     8 OT DIIS     0.80E-01   11.6     0.00001235     -6910.3059049003 -8.28E-05
     9 OT DIIS     0.80E-01   11.1     0.00001234     -6910.3059932791 -8.84E-05
    10 OT DIIS     0.80E-01   11.5     0.00001223     -6910.3061322843 -1.39E-04
    11 OT DIIS     0.80E-01   11.3     0.00001217     -6910.3062871989 -1.55E-04
    12 OT DIIS     0.80E-01   11.7     0.00001190     -6910.3064881729 -2.01E-04
    13 OT DIIS     0.80E-01   11.5     0.00001187     -6910.3066749386 -1.87E-04
    14 OT DIIS     0.80E-01   11.4     0.00001184     -6910.3068377816 -1.63E-04
    15 OT DIIS     0.80E-01   11.6     0.00001181     -6910.3070398959 -2.02E-04
    16 OT DIIS     0.80E-01   11.5     0.00001165     -6910.3072933734 -2.53E-04
    17 OT DIIS     0.80E-01   11.3     0.00001165     -6910.3074753242 -1.82E-04
    18 OT DIIS     0.80E-01   11.5     0.00001155     -6910.3076497788 -1.74E-04
    19 OT DIIS     0.80E-01   11.5     0.00001102     -6910.3077640503 -1.14E-04
    20 OT DIIS     0.80E-01   11.6     0.00001099     -6910.3079176209 -1.54E-04
    21 OT DIIS     0.80E-01   12.2     0.00001193     -6910.3082549719 -3.37E-04
    22 OT DIIS     0.80E-01   12.3     0.00001175     -6910.3084769660 -2.22E-04
    23 OT SD       0.80E-01   12.5     0.00001078     -6910.3085713065 -9.43E-05
    24 OT SD       0.80E-01   12.2     0.00001419     -6910.3086138330 -4.25E-05
    25 OT DIIS     0.80E-01   11.7     0.00004866     -6910.3085670814  4.68E-05
    26 OT DIIS     0.80E-01   12.1     0.00001123     -6910.3089154672 -3.48E-04
    27 OT DIIS     0.80E-01   12.2     0.00001115     -6910.3090086769 -9.32E-05
    28 OT SD       0.80E-01   12.3     0.00001272     -6910.3093962195 -3.88E-04
    29 OT DIIS     0.80E-01   12.4     0.00002303     -6910.3094195156 -2.33E-05
    30 OT SD       0.80E-01   12.2     0.00001151     -6910.3093950425  2.45E-05
    31 OT DIIS     0.80E-01   12.1     0.00003472     -6910.3093783490  1.67E-05
    32 OT DIIS     0.80E-01   12.2     0.00001250     -6910.3096164675 -2.38E-04
    33 OT SD       0.80E-01   11.8     0.00001401     -6910.3096405584 -2.41E-05
    34 OT DIIS     0.80E-01   12.1     0.00005809     -6910.3095366899  1.04E-04
    35 OT DIIS     0.80E-01   12.1     0.00000896     -6910.3098080450 -2.71E-04
    36 OT DIIS     0.80E-01   11.6     0.00001109     -6910.3099511240 -1.43E-04
    37 OT SD       0.80E-01   12.1     0.00000929     -6910.3100104896 -5.94E-05
    38 OT DIIS     0.80E-01   12.0     0.00003095     -6910.3099935783  1.69E-05
    39 OT DIIS     0.80E-01   12.2     0.00000802     -6910.3100877310 -9.42E-05
    40 OT SD       0.80E-01   12.2     0.00000859     -6910.3101223837 -3.47E-05
    41 OT DIIS     0.80E-01   11.8     0.00003230     -6910.3100992721  2.31E-05
    42 OT DIIS     0.80E-01   12.4     0.00000663     -6910.3102234018 -1.24E-04
    43 OT DIIS     0.80E-01   12.4     0.00000598     -6910.3102677129 -4.43E-05
    44 OT SD       0.80E-01   12.4     0.00000593     -6910.3103243673 -5.67E-05
    45 OT DIIS     0.80E-01   11.7     0.00001114     -6910.3103335060 -9.14E-06
    46 OT DIIS     0.80E-01   11.7     0.00000576     -6910.3103366825 -3.18E-06
    47 OT SD       0.80E-01   12.2     0.00000602     -6910.3103763773 -3.97E-05
    48 OT DIIS     0.80E-01   12.3     0.00001757     -6910.3103766315 -2.54E-07
    49 OT DIIS     0.80E-01   12.0     0.00000524     -6910.3104347290 -5.81E-05
    50 OT DIIS     0.80E-01   12.0     0.00000530     -6910.3104858422 -5.11E-05
    51 OT DIIS     0.80E-01   12.1     0.00000558     -6910.3105306836 -4.48E-05
    52 OT DIIS     0.80E-01   12.2     0.00000564     -6910.3105429313 -1.22E-05
    53 OT SD       0.80E-01   12.1     0.00000559     -6910.3105786293 -3.57E-05
    54 OT DIIS     0.80E-01   12.1     0.00001973     -6910.3105723040  6.33E-06
    55 OT DIIS     0.80E-01   11.9     0.00000449     -6910.3106249968 -5.27E-05
    56 OT DIIS     0.80E-01   12.2     0.00000441     -6910.3106488565 -2.39E-05
    57 OT DIIS     0.80E-01   12.0     0.00000414     -6910.3106771439 -2.83E-05
    58 OT SD       0.80E-01   12.1     0.00000455     -6910.3106888107 -1.17E-05
    59 OT DIIS     0.80E-01   12.1     0.00001453     -6910.3106881902  6.20E-07
    60 OT DIIS     0.80E-01   12.5     0.00000385     -6910.3107243958 -3.62E-05
    61 OT DIIS     0.80E-01   12.2     0.00000420     -6910.3107384121 -1.40E-05
    62 OT DIIS     0.80E-01   11.5     0.00000373     -6910.3107747817 -3.64E-05
    63 OT DIIS     0.80E-01   12.4     0.00000378     -6910.3107910237 -1.62E-05
    64 OT SD       0.80E-01   12.5     0.00000427     -6910.3107951846 -4.16E-06
    65 OT DIIS     0.80E-01   12.0     0.00001402     -6910.3107938539  1.33E-06
    66 OT DIIS     0.80E-01   12.0     0.00000367     -6910.3108242161 -3.04E-05
    67 OT DIIS     0.80E-01   12.0     0.00000359     -6910.3108460821 -2.19E-05
    68 OT DIIS     0.80E-01   12.4     0.00000367     -6910.3108690372 -2.30E-05
    69 OT SD       0.80E-01   11.8     0.00000399     -6910.3108865922 -1.76E-05
    70 OT DIIS     0.80E-01   11.9     0.00001288     -6910.3108854983  1.09E-06
    71 OT DIIS     0.80E-01   12.8     0.00000349     -6910.3109177923 -3.23E-05
    72 OT DIIS     0.80E-01   12.5     0.00000325     -6910.3109382238 -2.04E-05
    73 OT DIIS     0.80E-01   12.2     0.00000317     -6910.3109555303 -1.73E-05
    74 OT SD       0.80E-01   11.9     0.00000319     -6910.3109580849 -2.55E-06
    75 OT DIIS     0.80E-01   12.2     0.00000629     -6910.3109611955 -3.11E-06
    76 OT DIIS     0.80E-01   12.2     0.00000306     -6910.3109812136 -2.00E-05
    77 OT DIIS     0.80E-01   12.1     0.00000314     -6910.3109835943 -2.38E-06
    78 OT DIIS     0.80E-01   12.3     0.00000305     -6910.3110196275 -3.60E-05
    79 OT DIIS     0.80E-01   12.2     0.00000310     -6910.3110467552 -2.71E-05
    80 OT SD       0.80E-01   12.1     0.00000317     -6910.3110620814 -1.53E-05
    81 OT DIIS     0.80E-01   12.0     0.00000746     -6910.3110640181 -1.94E-06
    82 OT DIIS     0.80E-01   12.4     0.00000310     -6910.3110676000 -3.58E-06
    83 OT DIIS     0.80E-01   12.5     0.00000284     -6910.3110920942 -2.45E-05
    84 OT DIIS     0.80E-01   12.4     0.00000285     -6910.3110994544 -7.36E-06
    85 OT DIIS     0.80E-01   12.4     0.00000299     -6910.3111276204 -2.82E-05
    86 OT DIIS     0.80E-01   12.4     0.00000280     -6910.3111480342 -2.04E-05
    87 OT SD       0.80E-01   12.1     0.00000306     -6910.3111640058 -1.60E-05
    88 OT DIIS     0.80E-01   12.3     0.00000781     -6910.3111652811 -1.28E-06
    89 OT DIIS     0.80E-01   11.9     0.00000300     -6910.3111648211  4.60E-07
    90 OT DIIS     0.80E-01   12.2     0.00000299     -6910.3111811785 -1.64E-05
    91 OT DIIS     0.80E-01   11.9     0.00000263     -6910.3111890563 -7.88E-06
    92 OT DIIS     0.80E-01   12.5     0.00000270     -6910.3112083002 -1.92E-05
    93 OT DIIS     0.80E-01   12.2     0.00000291     -6910.3112366715 -2.84E-05
    94 OT SD       0.80E-01   12.2     0.00000286     -6910.3112638339 -2.72E-05
    95 OT SD       0.80E-01   12.1     0.00000581     -6910.3112657696 -1.94E-06
    96 OT DIIS     0.80E-01   12.0     0.00002756     -6910.3112406977  2.51E-05
    97 OT DIIS     0.80E-01   11.5     0.00000259     -6910.3112902442 -4.95E-05
    98 OT DIIS     0.80E-01   12.0     0.00000265     -6910.3113056442 -1.54E-05
    99 OT DIIS     0.80E-01   11.7     0.00000253     -6910.3113191710 -1.35E-05
   100 OT DIIS     0.80E-01   12.0     0.00000254     -6910.3113341911 -1.50E-05

  Leaving inner SCF loop after reaching   100 steps.


  Electronic density on regular grids:      -2431.9999999928        0.0000000072
  Core density on regular grids:             2431.9999999988       -0.0000000012
  Total charge density on r-space grids:        0.0000000060
  Total charge density g-space grids:           0.0000000060

  Overlap energy of the core charge distribution:               0.00558503018225
  Self energy of the core charge distribution:             -16017.19408509233290
  Core Hamiltonian energy:                                   4282.81802796877037
  Hartree energy:                                            6148.02685077223123
  Exchange-correlation energy:                              -1322.24742764882035
  Dispersion energy:                                           -1.72028522112694

  Total energy:                                             -6910.31133419109756

  outer SCF iter =    2 RMS gradient =   0.25E-05 energy =      -6910.3113341911

  ----------------------------------- OT ---------------------------------------
  Minimizer      : DIIS                : direct inversion
                                         in the iterative subspace
                                         using   7 DIIS vectors
                                         safer DIIS on
  Preconditioner : FULL_SINGLE_INVERSE : inversion of 
                                         H + eS - 2*(Sc)(c^T*H*c+const)(Sc)^T
  Precond_solver : DEFAULT
  stepsize       :    0.08000000                  energy_gap     :    0.08000000
  eps_taylor     :   0.10000E-15                  max_taylor     :             4
  ----------------------------------- OT ---------------------------------------

  Step     Update method      Time    Convergence         Total energy    Change
  ------------------------------------------------------------------------------
     1 OT DIIS     0.80E-01   33.1     0.00000278     -6910.3113600080 -2.58E-05
     2 OT DIIS     0.80E-01   11.0     0.00000454     -6910.3113622993 -2.29E-06
     3 OT DIIS     0.80E-01   11.1     0.00000302     -6910.3113635121 -1.21E-06
     4 OT DIIS     0.80E-01   10.9     0.00000245     -6910.3113647958 -1.28E-06
     5 OT DIIS     0.80E-01   11.2     0.00000242     -6910.3113662423 -1.45E-06
     6 OT DIIS     0.80E-01   11.2     0.00000241     -6910.3113690211 -2.78E-06
     7 OT DIIS     0.80E-01   11.0     0.00000238     -6910.3113742076 -5.19E-06
     8 OT DIIS     0.80E-01   11.5     0.00000241     -6910.3113829832 -8.78E-06
     9 OT DIIS     0.80E-01   11.3     0.00000236     -6910.3113897957 -6.81E-06
    10 OT DIIS     0.80E-01   11.3     0.00000233     -6910.3114014313 -1.16E-05
    11 OT DIIS     0.80E-01   11.4     0.00000230     -6910.3114087486 -7.32E-06
    12 OT DIIS     0.80E-01   11.4     0.00000236     -6910.3114129091 -4.16E-06
    13 OT DIIS     0.80E-01   11.6     0.00000229     -6910.3114217350 -8.83E-06
    14 OT DIIS     0.80E-01   11.4     0.00000225     -6910.3114327616 -1.10E-05
    15 OT DIIS     0.80E-01   11.4     0.00000224     -6910.3114461844 -1.34E-05
    16 OT DIIS     0.80E-01   11.4     0.00000224     -6910.3114558295 -9.65E-06
    17 OT SD       0.80E-01   10.9     0.00000223     -6910.3114658617 -1.00E-05
    18 OT DIIS     0.80E-01   11.0     0.00000413     -6910.3114674893 -1.63E-06
    19 OT DIIS     0.80E-01   11.4     0.00000214     -6910.3114857875 -1.83E-05
    20 OT DIIS     0.80E-01   11.7     0.00000218     -6910.3114956450 -9.86E-06
    21 OT DIIS     0.80E-01   11.3     0.00000210     -6910.3115064146 -1.08E-05
    22 OT DIIS     0.80E-01   11.6     0.00000208     -6910.3115079464 -1.53E-06
[...]
  Exchange-correlation energy:                              -1319.43004441768244
  Dispersion energy:                                           -1.71195789297344

  Total energy:                                             -6921.08014808512689

  outer SCF iter =    1 RMS gradient =   0.95E-06 energy =      -6921.0801480851
  outer SCF loop converged in   1 iterations or   33 steps


 ENERGY| Total FORCE_EVAL ( QS ) energy [hartree]          -6921.080148379451202

 OPT| **************************************************************************
 OPT| Step number                                                            200
 OPT| Optimization method                                                  LBFGS
 OPT| Total energy [hartree]                                    -6921.0801483795
 OPT| Effective energy change [hartree]                            -0.0009168489
 OPT| Decrease in energy                                                     YES
 OPT| Used time [s]                                                      371.309
 OPT|
 OPT| Maximum step size                                             0.0354393605
 OPT| Convergence limit for maximum step size                       0.0030000000
 OPT| Maximum step size is converged                                          NO
 OPT|
 OPT| RMS step size                                                 0.0040755184
 OPT| Convergence limit for RMS step size                           0.0015000000
 OPT| RMS step size is converged                                              NO
 OPT|
 OPT| Maximum gradient                                              0.0186491624
 OPT| Convergence limit for maximum gradient                        0.0010000000
 OPT| Maximum gradient is converged                                           NO
 OPT|
 OPT| RMS gradient                                                  0.0010087288
 OPT| Convergence limit for RMS gradient                            0.0005000000
 OPT| RMS gradient is converged                                               NO
 OPT| **************************************************************************
 OPT| Estimated peak process memory after this step [MiB]                  16710

 *** MAXIMUM NUMBER OF OPTIMIZATION STEPS REACHED ***
 ***        EXITING GEOMETRY OPTIMIZATION         ***

 -------------------------------------------------------------------------------
 -                                                                             -
 -                                DBCSR STATISTICS                             -
 -                                                                             -
 -------------------------------------------------------------------------------
 COUNTER                                    TOTAL       BLAS       SMM       ACC
 flops     9 x     9 x    32        1995881969664       0.0%      0.0%    100.0%     
 flops     9 x    14 x    32        7477007295744       0.0%      0.0%    100.0%     
 flops    14 x     9 x    32        7482221236224       0.0%      0.0%    100.0%     
 flops     9 x    32 x     9       11686233636864       0.0%      0.0%    100.0%     
 flops     9 x    13 x    32       19892255640192       0.0%      0.0%    100.0%     
 flops    13 x     9 x    32       19934669199744       0.0%      0.0%    100.0%     
 flops    14 x    14 x    32       25885141947392       0.0%      0.0%    100.0%     
 flops    14 x    32 x     9       45251237235456       0.0%      0.0%    100.0%     
 flops     9 x    32 x    14       45251237235456       0.0%      0.0%    100.0%     
 flops    14 x    13 x    32       61826447551232       0.0%      0.0%    100.0%     
 flops    13 x    14 x    32       62302230285568       0.0%      0.0%    100.0%     
 flops    32 x    32 x     9       62557425303552       0.0%      0.0%    100.0%     
 flops     9 x    32 x    32       78100687355904       0.0%      0.0%    100.0%     
 flops    13 x    32 x     9      127979566580736       0.0%      0.0%    100.0%     
 flops     9 x    32 x    13      127979566580736       0.0%      0.0%    100.0%     
 flops    13 x    13 x    32      131354869147008       0.0%      0.0%    100.0%     
 flops    14 x    32 x    14      161150660457472       0.0%      0.0%    100.0%     
 flops    32 x    32 x    14      243278876180480       0.0%      0.0%    100.0%     
 flops    14 x    32 x    32      303724895272960       0.0%      0.0%    100.0%     
 flops    14 x    32 x    13      433812483080704       0.0%      0.0%    100.0%     
 flops    13 x    32 x    14      433812483080704       0.0%      0.0%    100.0%     
 flops    32 x    32 x    32      496379283111936       0.0%      0.0%    100.0%     
 flops    32 x    32 x    13      776537484236800       0.0%      0.0%    100.0%     
 flops    13 x    32 x    32      969479018393600       0.0%      0.0%    100.0%     
 flops    13 x    32 x    13     1102844986928256       0.0%      0.0%    100.0%     
 flops inhomo. stacks                           0       0.0%      0.0%      0.0%
 flops total                         5.757977E+15       0.0%      0.0%    100.0%
 flops max/rank                      5.757977E+15       0.0%      0.0%    100.0%
 matmuls inhomo. stacks                         0       0.0%      0.0%      0.0%
 matmuls total                       369245370663       0.0%      0.0%    100.0%
 number of processed stacks              26349108       0.0%      0.0%    100.0%
 average stack size                                     0.0       0.0   14013.6
 marketing flops                     7.581743E+15
 -------------------------------------------------------------------------------
 # multiplications                         381064
 max memory usage/rank              17.542930E+09
 # max total images/rank                        1
 # max 3D layers                                1
 # MPI messages exchanged                       0
 -------------------------------------------------------------------------------
 -                                                                             -
 -                      DBCSR MESSAGE PASSING PERFORMANCE                      -
 -                                                                             -
 -------------------------------------------------------------------------------
 ROUTINE             CALLS      AVE VOLUME [Bytes]
 MP_Bcast               26                     12.
 MP_Allreduce      1376611                      9.
 MP_Alltoall       1152178                4170925.
 MP_ISend          1523020                 307306.
 MP_IRecv          1523020                 307306.
 -------------------------------------------------------------------------------

 -------------------------------------------------------------------------------
 -                                                                             -
 -                                DBM STATISTICS                               -
 -                                                                             -
 -------------------------------------------------------------------------------
    M  x    N  x    K                                          COUNT     PERCENT
 -------------------------------------------------------------------------------

 -------------------------------------------------------------------------------
 -                                                                             -
 -                                GRID STATISTICS                              -
 -                                                                             -
 -------------------------------------------------------------------------------
 LP    KERNEL             BACKEND                              COUNT     PERCENT
 3     collocate ortho    GPU                             1899113978      14.69%
 3     integrate ortho    GPU                             1877461574      14.52%
 2     collocate ortho    GPU                              208633006       1.61%
 2     integrate ortho    GPU                              205958951       1.59%
 4     collocate ortho    GPU                             4357538481      33.70%
 5     integrate ortho    GPU                               56064365       0.43%
 4     integrate ortho    GPU                             4325800575      33.45%
 0     collocate general  CPU                                  92880       0.00%
 1     integrate general  CPU                                  92880       0.00%
 -------------------------------------------------------------------------------

 MEMORY| Estimated peak process memory [MiB]                               16710

 -------------------------------------------------------------------------------
 -                                                                             -
 -                         MESSAGE PASSING PERFORMANCE                         -
 -                                                                             -
 -------------------------------------------------------------------------------

 ROUTINE             CALLS      AVE VOLUME [Bytes]
 MP_Group                4
 MP_Bcast           365645                   6858.
 MP_Allreduce       905990                   6555.
 MP_Sync              5148
 -------------------------------------------------------------------------------


 -------------------------------------------------------------------------------
 -                                                                             -
 -                           R E F E R E N C E S                               -
 -                                                                             -
 -------------------------------------------------------------------------------
 
 CP2K version 2025.1, the CP2K developers group (2025).
 CP2K is freely available from https://www.cp2k.org/ .
 
 T. D. Kuehne, M. Iannuzzi, M. Del Ben, V. V. Rybkin, P. Seewald, F. Stein, T. 
 Laino, R. Z. Khaliullin, O. Schuett, F. Schiffmann, D. Golze, J. Wilhelm, S. 
 Chulkov, M. H. Bani-Hashemian, V. Weber, U. Borstnik, M. Taillefumier, A. S. 
 Jakobovits, A. Lazzaro, H. Pabst, T. Mueller, R. Schade, M. Guidon, S. 
 Andermatt, N. Holmberg, G. K. Schenter, A. Hehn, A. Bussy, F. Belleflamme, G. 
 Tabacchi, A. Gloess, M. Lass, I. Bethune, C. J. Mundy, C. Plessl, M. Watkins, 
 J. VandeVondele, M. Krack, J. Hutter.
 J. Chem. Phys. 152, 194103 (2020).
 CP2K: An electronic structure and molecular dynamics software package - 
 Quickstep: Efficient and accurate electronic structure calculations.
 https://doi.org/10.1063/5.0007045

 E. Caldeweyher, J. M. Mewes, S. Ehlert, S. Grimme.
 Phys. Chem. Chem. Phys. 22, 8499-8512 (2020).
 Extension and evaluation of the D4 London-dispersion model for periodic 
 systems.
 https://doi.org/10.1039/d0cp00502a

 E. Caldeweyher, S. Ehlert, A. Hansen, H. Neugebauer, S. Spicher, C. Bannwarth, 
 S. Grimme.
 J. Chem. Phys. 150, 154122 (2019).
 A generally applicable atomic-charge dependent London dispersion correction.
 https://doi.org/10.1063/1.5090222

 E. Caldeweyher, C. Bannwarth, S. Grimme.
 J. Chem. Phys. 147, 034112 (2017).
 Extension of the D3 dispersion coefficient model.
 https://doi.org/10.1063/1.4993215

 O. Schuett, P. Messmer, J. Hutter, J. VandeVondele.
 Electronic Structure Calculations on Graphics Processing Units, 173-190 (2016).
 GPU-Accelerated Sparse Matrix-Matrix Multiplication for Linear Scaling Density 
 Functional Theory.
 https://doi.org/10.1002/9781118670712.ch8

 A. Heinecke, G. Henry, M. Hutchinson, H. Pabst.
 Proceedings of Intl. Supercomputing Conference, 981-991 (2016).
 LIBXSMM: Accelerating Small Matrix Multiplications by Runtime Code Generation.
 https://doi.org/10.1109/SC.2016.83

 J. Hutter, M. Iannuzzi, F. Schiffmann, J. VandeVondele.
 WIREs Comput Mol Sci. 4, 15-25 (2014).
 CP2K: atomistic simulations of condensed matter systems.
 https://doi.org/10.1002/wcms.1159

 U. Borstnik, J. VandeVondele, V. Weber, J. Hutter.
 Parallel Comput. 40, 47-58 (2014).
 Sparse matrix multiplication: The distributed block-compressed sparse row 
 library.
 https://doi.org/10.1016/j.parco.2014.03.012

 A. Marek, V. Blum, R. Johanni, V. Havu, B. Lang, T. Auckenthaler, A. Heinecke, 
 H. Bungartz, H. Lederer.
 J. Phys. Condens. Matter 26, 213201 (2014).
 The ELPA library: scalable parallel eigenvalue solutions for electronic 
 structure theory and computational science.
 https://doi.org/10.1088/0953-8984/26/21/213201

 J. VandeVondele, J. Hutter.
 J. Chem. Phys. 127, 114105 (2007).
 Gaussian basis sets for accurate calculations on molecular systems in gas and 
 condensed phases.
 https://doi.org/10.1063/1.2770708

 T. D. Khne, M. Krack, F. R. Mohamed, M. Parrinello.
 Phys. Rev. Lett. 98, 066401 (2007).
 Efficient and accurate Car-Parrinello-like approach to Born-Oppenheimer 
 molecular dynamics.
 https://doi.org/10.1103/PhysRevLett.98.066401

 J. VandeVondele, M. Krack, F. Mohamed, M. Parrinello, T. Chassaing, J. Hutter.
 Comput. Phys. Commun. 167, 103-128 (2005).
 QUICKSTEP: Fast and accurate density functional calculations using a mixed 
 Gaussian and plane waves approach.
 https://doi.org/10.1016/j.cpc.2004.12.014

 M. Krack.
 Theor. Chem. Acc. 114, 145-152 (2005).
 Pseudopotentials for H to Kr optimized for gradient-corrected 
 exchange-correlation functionals.
 https://doi.org/10.1007/s00214-005-0655-y

 M. Frigo, S. G. Johnson.
 Proc. IEEE 93, 216-231 (2005).
 The design and implementation of FFTW3.
 https://doi.org/10.1109/JPROC.2004.840301

 J. Kolafa.
 J. Comput. Chem. 25, 335-342 (2004).
 Time-reversible always stable predictor-corrector method for molecular dynamics 
 of polarizable molecules.
 https://doi.org/10.1002/jcc.10385

 J. VandeVondele, J. Hutter.
 J. Chem. Phys. 118, 4365-4369 (2003).
 An efficient orbital transformation method for electronic structure 
 calculations.
 https://doi.org/10.1063/1.1543154

 C. Hartwigsen, S. Goedecker, J. Hutter.
 Phys. Rev. B 58, 3641-3662 (1998).
 Relativistic separable dual-space Gaussian pseudopotentials from H to Rn.
 https://doi.org/10.1103/PhysRevB.58.3641

 G. Lippert, J. Hutter, M. Parrinello.
 Mol. Phys. 92, 477-487 (1997).
 A hybrid Gaussian and plane wave density functional scheme.
 https://doi.org/10.1080/002689797170220

 S. Goedecker, M. Teter, J. Hutter.
 Phys. Rev. B 54, 1703-1710 (1996).
 Separable dual-space Gaussian pseudopotentials.
 https://doi.org/10.1103/PhysRevB.54.1703

 J. P. Perdew, K. Burke, M. Ernzerhof.
 Phys. Rev. Lett. 77, 3865-3868 (1996).
 Generalized gradient approximation made simple.
 https://doi.org/10.1103/PhysRevLett.77.3865

 R. H. Byrd, P. H. Lu, J. Nocedal, C. Y. Zhu.
 SIAM J. Sci. Comput. 16, 1190-1208 (1995).
 A Limited Memory Algorithm for Bound Constrained Optimization.
 https://doi.org/10.1137/0916069


 -------------------------------------------------------------------------------
 -                                                                             -
 -                                T I M I N G                                  -
 -                                                                             -
 -------------------------------------------------------------------------------
 SUBROUTINE                       CALLS  ASD         SELF TIME        TOTAL TIME
                                MAXIMUM       AVERAGE  MAXIMUM  AVERAGE  MAXIMUM
 CP2K                                 1  1.0      1.9      1.9 208636.5 208636.5
 cp_geo_opt                           1  2.0      0.0      0.0 208615.6 208615.6
 geoopt_lbfgs                         1  3.0      0.1      0.1 208615.6 208615.6
 cp_opt_gopt_step                   200  4.0      0.2      0.2 208615.1 208615.1
 cp_eval_at                         240  5.0      0.1      0.1 208606.4 208606.4
 qs_forces                          240  6.0      0.1      0.1 208606.3 208606.3
 qs_energies                        240  7.0      0.1      0.1 205887.6 205887.6
 scf_env_do_scf                     240  8.0      0.1      0.1 203461.6 203461.6
 scf_env_do_scf_inner_loop        18400  9.0     25.5     25.5 198987.7 198987.7
 rebuild_ks_matrix                18640 11.0      0.2      0.2 136266.0 136266.0
 qs_ks_build_kohn_sham_matrix     18640 12.0      6.0      6.0 136265.9 136265.9
 qs_ks_update_qs_env              18709 10.0      0.4      0.4 134329.5 134329.5
 sum_up_and_integrate             18640 13.0      1.3      1.3  63216.3  63216.3
 integrate_v_rspace               18640 14.0    194.0    194.0  62657.7  62657.7
 grid_integrate_task_list         18640 15.0  57261.7  57261.7  57261.7  57261.7
 qs_vxc_create                    18640 13.0      0.6      0.6  52275.8  52275.8
 xc_vxc_pw_create                 18640 14.0   3541.5   3541.5  52275.2  52275.2
 qs_rho_update_rho_low            18640 10.0      0.1      0.1  44619.7  44619.7
 calculate_rho_elec               18640 11.0   2614.3   2614.3  44619.6  44619.6
 grid_collocate_task_list         18640 12.0  33461.7  33461.7  33461.7  33461.7
 xc_rho_set_and_dset_create       18640 15.0   4582.3   4582.3  30749.7  30749.7
 fft_wrap_pw1pw2                 317120 15.3     12.8     12.8  30432.4  30432.4
 fft_wrap_pw1pw2_200             205280 16.7      1.6      1.6  28978.8  28978.8
 xc_pw_derive                    111840 16.0      2.9      2.9  24007.8  24007.8
 qs_scf_new_mos                   18400 10.0      0.2      0.2  21353.4  21353.4
 qs_scf_loop_do_ot                18400 11.0      0.2      0.2  21353.3  21353.3
 ot_scf_mini                      18400 12.0      1.1      1.1  19939.8  19939.8
 dbcsr_multiply_generic          381064 15.1     83.6     83.6  19350.6  19350.6
 xc_pw_divergence                 18640 15.0      1.6      1.6  17027.3  17027.3
 pw_gpu_r3dc1d_3d                149360 16.9  15347.2  15347.2  15347.2  15347.2
 pw_gpu_c1dr3d_3d                167760 17.6  15069.9  15069.9  15069.9  15069.9
 pw_poisson_solve                 18640 13.0      1.4      1.4  14304.9  14304.9
 xc_functional_eval               18640 16.0      0.4      0.4  13233.9  13233.9
 pbe_lda_eval                     18640 17.0  13233.5  13233.5  13233.5  13233.5
 ot_mini                          18400 13.0      0.2      0.2  12262.5  12262.5
 multiply_cannon                 381064 16.1    541.1    541.1  11209.6  11209.6
 pw_derive                       167760 16.3  10014.2  10014.2  10014.2  10014.2
 multiply_cannon_loop            381064 17.1    518.2    518.2   9689.5   9689.5
 density_rs2pw                    18640 12.0      3.0      3.0   8543.6   8543.6
 multiply_cannon_multrec         381064 18.1   5659.7   5659.7   8336.8   8336.8
 qs_ot_get_derivative             18400 14.0      0.3      0.3   7783.1   7783.1
 pw_integral_ab_c1d_c1d_gs        18640 14.0   7600.6   7600.6   7600.6   7600.6
 make_m2s                        762128 16.1     11.9     11.9   6919.3   6919.3
 make_images                     762128 17.1   1772.4   1772.4   6665.7   6665.7
 pw_copy                         279600 15.5   6641.4   6641.4   6641.4   6641.4
 potential_pw2rs                  18640 15.0    113.6    113.6   5202.0   5202.0
 pw_poisson_set                   18641 14.0      1.7      1.7   4918.1   4918.1
 ot_diis_step                     18400 14.0      1.8      1.8   4477.6   4477.6
 init_scf_loop                      309  9.0      0.0      0.0   4408.0   4408.0
 -------------------------------------------------------------------------------

 The number of warnings for this run is : 0
 
 -------------------------------------------------------------------------------
  **** **** ******  **  PROGRAM ENDED AT                 2025-10-15 10:24:30.167
 ***** ** ***  *** **   PROGRAM RAN ON                              6320c3243fc6
 **    ****   ******    PROGRAM RAN BY                                 <unknown>
 ***** **    ** ** **   PROGRAM PROCESS ID                                   614
  **** **  *******  **  PROGRAM STOPPED IN                             /mnt/cp2k
